 Entering Gaussian System, Link 0=g16
 Input=1_nh3_3_h2o.gjf
 Output=1_nh3_3_h2o.log
 Initial command:
 /apps/software/vendor/gaussian/grads/g16/l1.exe "/sfs/weka/scratch/mjs7eek/gauss_jobs/solvent_effects/pd2/square_planar/nh/1_nh3_3_h2o/freq/Gau-347091.inp" -scrdir="/sfs/weka/scratch/mjs7eek/gauss_jobs/solvent_effects/pd2/square_planar/nh/1_nh3_3_h2o/freq/"
 Default is to use a total of  30 processors:
                               30 via shared-memory
                                1 via Linda
 Entering Link 1 = /apps/software/vendor/gaussian/grads/g16/l1.exe PID=    347093.
  
 Copyright (c) 1988-2017, Gaussian, Inc.  All Rights Reserved.
  
 This is part of the Gaussian(R) 16 program.  It is based on
 the Gaussian(R) 09 system (copyright 2009, Gaussian, Inc.),
 the Gaussian(R) 03 system (copyright 2003, Gaussian, Inc.),
 the Gaussian(R) 98 system (copyright 1998, Gaussian, Inc.),
 the Gaussian(R) 94 system (copyright 1995, Gaussian, Inc.),
 the Gaussian 92(TM) system (copyright 1992, Gaussian, Inc.),
 the Gaussian 90(TM) system (copyright 1990, Gaussian, Inc.),
 the Gaussian 88(TM) system (copyright 1988, Gaussian, Inc.),
 the Gaussian 86(TM) system (copyright 1986, Carnegie Mellon
 University), and the Gaussian 82(TM) system (copyright 1983,
 Carnegie Mellon University). Gaussian is a federally registered
 trademark of Gaussian, Inc.
  
 This software contains proprietary and confidential information,
 including trade secrets, belonging to Gaussian, Inc.
  
 This software is provided under written license and may be
 used, copied, transmitted, or stored only in accord with that
 written license.
  
 The following legend is applicable only to US Government
 contracts under FAR:
  
                    RESTRICTED RIGHTS LEGEND
  
 Use, reproduction and disclosure by the US Government is
 subject to restrictions as set forth in subparagraphs (a)
 and (c) of the Commercial Computer Software - Restricted
 Rights clause in FAR 52.227-19.
  
 Gaussian, Inc.
 340 Quinnipiac St., Bldg. 40, Wallingford CT 06492
  
  
 ---------------------------------------------------------------
 Warning -- This program may not be used in any manner that
 competes with the business of Gaussian, Inc. or will provide
 assistance to any competitor of Gaussian, Inc.  The licensee
 of this program is prohibited from giving any competitor of
 Gaussian, Inc. access to this program.  By using this program,
 the user acknowledges that Gaussian, Inc. is engaged in the
 business of creating and licensing software in the field of
 computational chemistry and represents and warrants to the
 licensee that it is not a competitor of Gaussian, Inc. and that
 it will not use this program in any manner prohibited above.
 ---------------------------------------------------------------
  

 Cite this work as:
 Gaussian 16, Revision B.01,
 M. J. Frisch, G. W. Trucks, H. B. Schlegel, G. E. Scuseria, 
 M. A. Robb, J. R. Cheeseman, G. Scalmani, V. Barone, 
 G. A. Petersson, H. Nakatsuji, X. Li, M. Caricato, A. V. Marenich, 
 J. Bloino, B. G. Janesko, R. Gomperts, B. Mennucci, H. P. Hratchian, 
 J. V. Ortiz, A. F. Izmaylov, J. L. Sonnenberg, D. Williams-Young, 
 F. Ding, F. Lipparini, F. Egidi, J. Goings, B. Peng, A. Petrone, 
 T. Henderson, D. Ranasinghe, V. G. Zakrzewski, J. Gao, N. Rega, 
 G. Zheng, W. Liang, M. Hada, M. Ehara, K. Toyota, R. Fukuda, 
 J. Hasegawa, M. Ishida, T. Nakajima, Y. Honda, O. Kitao, H. Nakai, 
 T. Vreven, K. Throssell, J. A. Montgomery, Jr., J. E. Peralta, 
 F. Ogliaro, M. J. Bearpark, J. J. Heyd, E. N. Brothers, K. N. Kudin, 
 V. N. Staroverov, T. A. Keith, R. Kobayashi, J. Normand, 
 K. Raghavachari, A. P. Rendell, J. C. Burant, S. S. Iyengar, 
 J. Tomasi, M. Cossi, J. M. Millam, M. Klene, C. Adamo, R. Cammi, 
 J. W. Ochterski, R. L. Martin, K. Morokuma, O. Farkas, 
 J. B. Foresman, and D. J. Fox, Gaussian, Inc., Wallingford CT, 2016.
 
 ******************************************
 Gaussian 16:  ES64L-G16RevB.01 20-Dec-2017
                16-Aug-2024 
 ******************************************
 %chk=1_nh3_3_h2o.chk
 -----------------------------------------------------------
 # opt freq upbepbe/genecp scf=xqc empiricaldispersion=gd3bj
 -----------------------------------------------------------
 1/18=20,19=15,26=3,38=1/1,3;
 2/9=110,12=2,17=6,18=5,40=1/2;
 3/5=7,11=2,16=1,17=8,25=1,30=1,71=1,74=1009,116=2,124=41/1,2,3;
 4//1;
 5/5=2,8=3,13=1,38=5/2,8;
 6/7=2,8=2,9=2,10=2,28=1/1;
 7//1,2,3,16;
 1/18=20,19=15,26=3/3(2);
 2/9=110/2;
 99//99;
 2/9=110/2;
 3/5=7,6=1,11=2,16=1,17=8,25=1,30=1,71=1,74=1009,82=7,116=2,124=41/1,2,3;
 4/5=5,16=3,69=1/1;
 5/5=2,8=3,13=1,38=5/2,8;
 7//1,2,3,16;
 1/18=20,19=15,26=3/3(-5);
 2/9=110/2;
 6/7=2,8=2,9=2,10=2,19=2,28=1/1;
 99/9=1/99;
 -------------------------------------------------
 1NH3 3H2O on Pd 2+ in Square Planar configuration
 -------------------------------------------------
 Symbolic Z-matrix:
 Charge =  2 Multiplicity = 1
 Pd                    0.00291   0.01053  -0.00514 
 O                     1.53329   1.39598   0.0083 
 H                     1.59178   2.0002    0.78002 
 H                     1.6578    1.94028  -0.79952 
 N                     1.45972  -1.39332   0.01019 
 H                     2.35465  -0.99008   0.32916 
 H                     1.21173  -2.17465   0.63776 
 O                    -1.34627  -1.54177   0.02683 
 H                    -2.04478  -1.44569   0.71282 
 H                    -1.81678  -1.69552  -0.82317 
 H                     1.61143  -1.78507  -0.93337 
 O                    -1.60804   1.34708   0.00207 
 H                    -1.74405   1.94199   0.76952 
 H                    -1.80562   1.86695  -0.80563 
 

 GradGradGradGradGradGradGradGradGradGradGradGradGradGradGradGradGradGrad
 Berny optimization.
 Initialization pass.
                           ----------------------------
                           !    Initial Parameters    !
                           ! (Angstroms and Degrees)  !
 --------------------------                            --------------------------
 ! Name  Definition              Value          Derivative Info.                !
 --------------------------------------------------------------------------------
 ! R1    R(1,2)                  2.0644         estimate D2E/DX2                !
 ! R2    R(1,5)                  2.0232         estimate D2E/DX2                !
 ! R3    R(1,8)                  2.0569         estimate D2E/DX2                !
 ! R4    R(1,12)                 2.0932         estimate D2E/DX2                !
 ! R5    R(2,3)                  0.9819         estimate D2E/DX2                !
 ! R6    R(2,4)                  0.982          estimate D2E/DX2                !
 ! R7    R(5,6)                  1.0321         estimate D2E/DX2                !
 ! R8    R(5,7)                  1.0324         estimate D2E/DX2                !
 ! R9    R(5,11)                 1.0329         estimate D2E/DX2                !
 ! R10   R(8,9)                  0.9837         estimate D2E/DX2                !
 ! R11   R(8,10)                 0.9836         estimate D2E/DX2                !
 ! R12   R(12,13)                0.9805         estimate D2E/DX2                !
 ! R13   R(12,14)                0.9806         estimate D2E/DX2                !
 ! A1    A(2,1,5)               86.0914         estimate D2E/DX2                !
 ! A2    A(2,1,12)              98.1627         estimate D2E/DX2                !
 ! A3    A(5,1,8)               87.0496         estimate D2E/DX2                !
 ! A4    A(8,1,12)              88.6829         estimate D2E/DX2                !
 ! A5    A(1,2,3)              117.5332         estimate D2E/DX2                !
 ! A6    A(1,2,4)              117.427          estimate D2E/DX2                !
 ! A7    A(3,2,4)              107.3333         estimate D2E/DX2                !
 ! A8    A(1,5,6)              110.83           estimate D2E/DX2                !
 ! A9    A(1,5,7)              110.9028         estimate D2E/DX2                !
 ! A10   A(1,5,11)             111.2246         estimate D2E/DX2                !
 ! A11   A(6,5,7)              108.4275         estimate D2E/DX2                !
 ! A12   A(6,5,11)             107.647          estimate D2E/DX2                !
 ! A13   A(7,5,11)             107.6715         estimate D2E/DX2                !
 ! A14   A(1,8,9)              113.7579         estimate D2E/DX2                !
 ! A15   A(1,8,10)             114.726          estimate D2E/DX2                !
 ! A16   A(9,8,10)             106.154          estimate D2E/DX2                !
 ! A17   A(1,12,13)            119.7925         estimate D2E/DX2                !
 ! A18   A(1,12,14)            119.3873         estimate D2E/DX2                !
 ! A19   A(13,12,14)           107.1621         estimate D2E/DX2                !
 ! A20   L(2,1,8,12,-1)        186.8456         estimate D2E/DX2                !
 ! A21   L(5,1,12,8,-1)        175.7326         estimate D2E/DX2                !
 ! A22   L(2,1,8,12,-2)        181.2914         estimate D2E/DX2                !
 ! A23   L(5,1,12,8,-2)        179.4341         estimate D2E/DX2                !
 ! D1    D(5,1,2,3)           -117.5848         estimate D2E/DX2                !
 ! D2    D(5,1,2,4)            111.9445         estimate D2E/DX2                !
 ! D3    D(12,1,2,3)            61.7526         estimate D2E/DX2                !
 ! D4    D(12,1,2,4)           -68.7181         estimate D2E/DX2                !
 ! D5    D(3,2,8,9)             13.3842         estimate D2E/DX2                !
 ! D6    D(3,2,8,10)           138.7694         estimate D2E/DX2                !
 ! D7    D(4,2,8,9)           -120.4641         estimate D2E/DX2                !
 ! D8    D(4,2,8,10)             4.9212         estimate D2E/DX2                !
 ! D9    D(2,1,5,6)             18.7903         estimate D2E/DX2                !
 ! D10   D(2,1,5,7)            139.2773         estimate D2E/DX2                !
 ! D11   D(2,1,5,11)          -100.9266         estimate D2E/DX2                !
 ! D12   D(8,1,5,6)           -159.9961         estimate D2E/DX2                !
 ! D13   D(8,1,5,7)            -39.5091         estimate D2E/DX2                !
 ! D14   D(8,1,5,11)            80.287          estimate D2E/DX2                !
 ! D15   D(6,5,12,13)          -45.7913         estimate D2E/DX2                !
 ! D16   D(6,5,12,14)           91.9215         estimate D2E/DX2                !
 ! D17   D(7,5,12,13)           74.7064         estimate D2E/DX2                !
 ! D18   D(7,5,12,14)         -147.5808         estimate D2E/DX2                !
 ! D19   D(11,5,12,13)        -166.7633         estimate D2E/DX2                !
 ! D20   D(11,5,12,14)         -29.0505         estimate D2E/DX2                !
 ! D21   D(5,1,8,9)            130.5726         estimate D2E/DX2                !
 ! D22   D(5,1,8,10)          -106.9231         estimate D2E/DX2                !
 ! D23   D(12,1,8,9)           -48.8615         estimate D2E/DX2                !
 ! D24   D(12,1,8,10)           73.6428         estimate D2E/DX2                !
 ! D25   D(2,1,12,13)          -63.7457         estimate D2E/DX2                !
 ! D26   D(2,1,12,14)           71.7067         estimate D2E/DX2                !
 ! D27   D(8,1,12,13)          114.9629         estimate D2E/DX2                !
 ! D28   D(8,1,12,14)         -109.5847         estimate D2E/DX2                !
 --------------------------------------------------------------------------------
 Trust Radius=3.00D-01 FncErr=1.00D-07 GrdErr=1.00D-06 EigMax=2.50D+02 EigMin=1.00D-04
 Number of steps in this run=     74 maximum allowed number of steps=    100.
 GradGradGradGradGradGradGradGradGradGradGradGradGradGradGradGradGradGrad

                          Input orientation:                          
 ---------------------------------------------------------------------
 Center     Atomic      Atomic             Coordinates (Angstroms)
 Number     Number       Type             X           Y           Z
 ---------------------------------------------------------------------
      1         46           0        0.002913    0.010532   -0.005141
      2          8           0        1.533292    1.395982    0.008296
      3          1           0        1.591777    2.000197    0.780023
      4          1           0        1.657800    1.940275   -0.799519
      5          7           0        1.459716   -1.393319    0.010187
      6          1           0        2.354649   -0.990079    0.329157
      7          1           0        1.211725   -2.174654    0.637762
      8          8           0       -1.346270   -1.541773    0.026830
      9          1           0       -2.044777   -1.445692    0.712819
     10          1           0       -1.816776   -1.695516   -0.823169
     11          1           0        1.611427   -1.785070   -0.933372
     12          8           0       -1.608040    1.347084    0.002074
     13          1           0       -1.744049    1.941992    0.769524
     14          1           0       -1.805624    1.866945   -0.805625
 ---------------------------------------------------------------------
                    Distance matrix (angstroms):
                    1          2          3          4          5
     1  Pd   0.000000
     2  O    2.064391   0.000000
     3  H    2.664533   0.981865   0.000000
     4  H    2.663380   0.981999   1.582056   0.000000
     5  N    2.023192   2.790272   3.482246   3.436235   0.000000
     6  H    2.577526   2.543790   3.118815   3.216595   1.032109
     7  H    2.578680   3.639928   4.194527   4.381484   1.032393
     8  O    2.056932   4.113712   4.663150   4.672467   2.809960
     9  H    2.613253   4.623207   5.010309   5.240326   3.574620
    10  H    2.625079   4.633751   5.277002   5.029136   3.394290
    11  H    2.583238   3.318424   4.155040   3.728037   1.032855
    12  O    2.093225   3.141719   3.357170   3.414694   4.113514
    13  H    2.717079   3.408601   3.336350   3.746262   4.686684
    14  H    2.712536   3.468809   3.751582   3.464206   4.685863
                    6          7          8          9         10
     6  H    0.000000
     7  H    1.674733   0.000000
     8  O    3.754007   2.705017   0.000000
     9  H    4.439564   3.337937   0.983730   0.000000
    10  H    4.384779   3.396426   0.983621   1.572786   0.000000
    11  H    1.666844   1.667333   3.119159   4.024046   3.431143
    12  O    4.612182   4.556074   2.900798   2.914703   3.159432
    13  H    5.058684   5.069589   3.584193   3.401478   3.971577
    14  H    5.172832   5.246168   3.538834   3.651908   3.562522
                   11         12         13         14
    11  H    0.000000
    12  O    4.588073   0.000000
    13  H    5.296231   0.980507   0.000000
    14  H    5.002976   0.980649   1.578137   0.000000
 Stoichiometry    H9NO3Pd(2+)
 Framework group  C1[X(H9NO3Pd)]
 Deg. of freedom    36
 Full point group                 C1      NOp   1
 Largest Abelian subgroup         C1      NOp   1
 Largest concise Abelian subgroup C1      NOp   1
                         Standard orientation:                         
 ---------------------------------------------------------------------
 Center     Atomic      Atomic             Coordinates (Angstroms)
 Number     Number       Type             X           Y           Z
 ---------------------------------------------------------------------
      1         46           0        0.002913   -0.010532    0.005141
      2          8           0        1.533292   -1.395982   -0.008296
      3          1           0        1.591778   -2.000197   -0.780023
      4          1           0        1.657801   -1.940275    0.799519
      5          7           0        1.459715    1.393319   -0.010187
      6          1           0        2.354648    0.990080   -0.329157
      7          1           0        1.211724    2.174654   -0.637762
      8          8           0       -1.346271    1.541772   -0.026830
      9          1           0       -2.044778    1.445691   -0.712819
     10          1           0       -1.816777    1.695515    0.823169
     11          1           0        1.611426    1.785070    0.933372
     12          8           0       -1.608040   -1.347085   -0.002074
     13          1           0       -1.744048   -1.941993   -0.769524
     14          1           0       -1.805623   -1.866946    0.805625
 ---------------------------------------------------------------------
 Rotational constants (GHZ):           3.1730104           2.9354196           1.5733754
 General basis read from cards:  (5D, 7F)
 ======================================================================================================
                                       Pseudopotential Parameters
 ======================================================================================================
  Center     Atomic      Valence      Angular      Power
  Number     Number     Electrons     Momentum     of R      Exponent        Coefficient   SO-Coeffient
 ======================================================================================================
    1         46           18
                                      F and up 
                                                     2       13.2700000      -31.92955431    0.00000000
                                                     2        6.6300000       -5.39821694    0.00000000
                                      S - F
                                                     2       12.4300000      240.22904033    0.00000000
                                                     2        6.1707594       35.17194347    0.00000000
                                                     2       13.2700000       31.92955431    0.00000000
                                                     2        6.6300000        5.39821694    0.00000000
                                      P - F
                                                     2       11.0800000      170.41727605    0.00000000
                                                     2        5.8295541       28.47213287    0.00000000
                                                     2       13.2700000       31.92955431    0.00000000
                                                     2        6.6300000        5.39821694    0.00000000
                                      D - F
                                                     2        9.5100000       69.01384488    0.00000000
                                                     2        4.1397811       11.75086158    0.00000000
                                                     2       13.2700000       31.92955431    0.00000000
                                                     2        6.6300000        5.39821694    0.00000000
    2          8
                                   No pseudopotential on this center.
    3          1
                                   No pseudopotential on this center.
    4          1
                                   No pseudopotential on this center.
    5          7
                                   No pseudopotential on this center.
    6          1
                                   No pseudopotential on this center.
    7          1
                                   No pseudopotential on this center.
    8          8
                                   No pseudopotential on this center.
    9          1
                                   No pseudopotential on this center.
   10          1
                                   No pseudopotential on this center.
   11          1
                                   No pseudopotential on this center.
   12          8
                                   No pseudopotential on this center.
   13          1
                                   No pseudopotential on this center.
   14          1
                                   No pseudopotential on this center.
 ======================================================================================================
 There are   176 symmetry adapted cartesian basis functions of A   symmetry.
 There are   157 symmetry adapted basis functions of A   symmetry.
   157 basis functions,   274 primitive gaussians,   176 cartesian basis functions
    28 alpha electrons       28 beta electrons
       nuclear repulsion energy       307.9256057196 Hartrees.
 NAtoms=   14 NActive=   14 NUniq=   14 SFac= 1.00D+00 NAtFMM=   60 NAOKFM=F Big=F
 Integral buffers will be    131072 words long.
 Raffenetti 2 integral format.
 Two-electron integral symmetry is turned on.
 Nuclear repulsion after empirical dispersion term =      307.9154283316 Hartrees.
 One-electron integrals computed using PRISM.
   1 Symmetry operations used in ECPInt.
 ECPInt:  NShTT=    1770 NPrTT=    6440 LenC2=    1753 LenP2D=    5045.
 LDataN:  DoStor=T MaxTD1= 8 Len=  415
 NBasis=   157 RedAO= T EigKep=  7.34D-03  NBF=   157
 NBsUse=   157 1.00D-06 EigRej= -1.00D+00 NBFU=   157
 Defaulting to unpruned grid for atomic number  46.
 ExpMin= 3.70D-02 ExpMax= 5.48D+03 ExpMxC= 8.25D+02 IAcc=3 IRadAn=         5 AccDes= 0.00D+00
 Harris functional with IExCor= 1009 and IRadAn=       5 diagonalized for initial guess.
 HarFok:  IExCor= 1009 AccDes= 0.00D+00 IRadAn=         5 IDoV= 1 UseB2=F ITyADJ=14
 ICtDFT=  3500011 ScaDFX=  1.000000  1.000000  1.000000  1.000000
 Defaulting to unpruned grid for atomic number  46.
 FoFCou: FMM=F IPFlag=           0 FMFlag=      100000 FMFlg1=           0
         NFxFlg=           0 DoJE=T BraDBF=F KetDBF=T FulRan=T
         wScrn=  0.000000 ICntrl=       500 IOpCl=  0 I1Cent=   200000004 NGrid=           0
         NMat0=    1 NMatS0=      1 NMatT0=    0 NMatD0=    1 NMtDS0=    0 NMtDT0=    0
 Petite list used in FoFCou.
 Initial guess <Sx>= 0.0000 <Sy>= 0.0000 <Sz>= 0.0000 <S**2>=-0.0000 S=-0.0000
 Requested convergence on RMS density matrix=1.00D-08 within  32 cycles.
 Requested convergence on MAX density matrix=1.00D-06.
 Requested convergence on             energy=1.00D-06.
 No special actions if energy rises.
 Defaulting to unpruned grid for atomic number  46.
 Defaulting to unpruned grid for atomic number  46.
 Defaulting to unpruned grid for atomic number  46.
 Defaulting to unpruned grid for atomic number  46.
 Defaulting to unpruned grid for atomic number  46.
 Defaulting to unpruned grid for atomic number  46.
 Defaulting to unpruned grid for atomic number  46.
 Defaulting to unpruned grid for atomic number  46.
 Defaulting to unpruned grid for atomic number  46.
 Defaulting to unpruned grid for atomic number  46.
 Defaulting to unpruned grid for atomic number  46.
 Defaulting to unpruned grid for atomic number  46.
 Defaulting to unpruned grid for atomic number  46.
 Defaulting to unpruned grid for atomic number  46.
 Defaulting to unpruned grid for atomic number  46.
 Defaulting to unpruned grid for atomic number  46.
 Defaulting to unpruned grid for atomic number  46.
 Defaulting to unpruned grid for atomic number  46.
 Defaulting to unpruned grid for atomic number  46.
 Defaulting to unpruned grid for atomic number  46.
 Defaulting to unpruned grid for atomic number  46.
 Defaulting to unpruned grid for atomic number  46.
 Defaulting to unpruned grid for atomic number  46.
 Defaulting to unpruned grid for atomic number  46.
 Defaulting to unpruned grid for atomic number  46.
 Defaulting to unpruned grid for atomic number  46.
 Defaulting to unpruned grid for atomic number  46.
 Defaulting to unpruned grid for atomic number  46.
 Defaulting to unpruned grid for atomic number  46.
 Defaulting to unpruned grid for atomic number  46.
 EnCoef did   100 forward-backward iterations
 EnCoef did     4 forward-backward iterations
 SCF Done:  E(UPBE-PBE) =  -412.907639951     A.U. after   14 cycles
            NFock= 14  Conv=0.39D-08     -V/T= 2.2475
 <Sx>= 0.0000 <Sy>= 0.0000 <Sz>= 0.0000 <S**2>=-0.0000 S=-0.0000
 <L.S>=  0.00000000000    
 Annihilation of the first spin contaminant:
 S**2 before annihilation    -0.0000,   after    -0.0000
 QCSCF skips out because SCF is already converged.

 **********************************************************************

            Population analysis using the SCF Density.

 **********************************************************************

 Orbital symmetries:
 Alpha Orbitals:
       Occupied  (A) (A) (A) (A) (A) (A) (A) (A) (A) (A) (A) (A)
                 (A) (A) (A) (A) (A) (A) (A) (A) (A) (A) (A) (A)
                 (A) (A) (A) (A)
       Virtual   (A) (A) (A) (A) (A) (A) (A) (A) (A) (A) (A) (A)
                 (A) (A) (A) (A) (A) (A) (A) (A) (A) (A) (A) (A)
                 (A) (A) (A) (A) (A) (A) (A) (A) (A) (A) (A) (A)
                 (A) (A) (A) (A) (A) (A) (A) (A) (A) (A) (A) (A)
                 (A) (A) (A) (A) (A) (A) (A) (A) (A) (A) (A) (A)
                 (A) (A) (A) (A) (A) (A) (A) (A) (A) (A) (A) (A)
                 (A) (A) (A) (A) (A) (A) (A) (A) (A) (A) (A) (A)
                 (A) (A) (A) (A) (A) (A) (A) (A) (A) (A) (A) (A)
                 (A) (A) (A) (A) (A) (A) (A) (A) (A) (A) (A) (A)
                 (A) (A) (A) (A) (A) (A) (A) (A) (A) (A) (A) (A)
                 (A) (A) (A) (A) (A) (A) (A) (A) (A)
 Beta  Orbitals:
       Occupied  (A) (A) (A) (A) (A) (A) (A) (A) (A) (A) (A) (A)
                 (A) (A) (A) (A) (A) (A) (A) (A) (A) (A) (A) (A)
                 (A) (A) (A) (A)
       Virtual   (A) (A) (A) (A) (A) (A) (A) (A) (A) (A) (A) (A)
                 (A) (A) (A) (A) (A) (A) (A) (A) (A) (A) (A) (A)
                 (A) (A) (A) (A) (A) (A) (A) (A) (A) (A) (A) (A)
                 (A) (A) (A) (A) (A) (A) (A) (A) (A) (A) (A) (A)
                 (A) (A) (A) (A) (A) (A) (A) (A) (A) (A) (A) (A)
                 (A) (A) (A) (A) (A) (A) (A) (A) (A) (A) (A) (A)
                 (A) (A) (A) (A) (A) (A) (A) (A) (A) (A) (A) (A)
                 (A) (A) (A) (A) (A) (A) (A) (A) (A) (A) (A) (A)
                 (A) (A) (A) (A) (A) (A) (A) (A) (A) (A) (A) (A)
                 (A) (A) (A) (A) (A) (A) (A) (A) (A) (A) (A) (A)
                 (A) (A) (A) (A) (A) (A) (A) (A) (A)
 The electronic state is 1-A.
 Alpha  occ. eigenvalues --  -19.19024 -19.18794 -19.17639 -14.40712  -3.70230
 Alpha  occ. eigenvalues --   -2.43359  -2.43193  -2.39060  -1.32386  -1.31947
 Alpha  occ. eigenvalues --   -1.31051  -1.17511  -0.87182  -0.86597  -0.86010
 Alpha  occ. eigenvalues --   -0.81520  -0.80675  -0.80353  -0.78671  -0.75513
 Alpha  occ. eigenvalues --   -0.71634  -0.68767  -0.66734  -0.64542  -0.59913
 Alpha  occ. eigenvalues --   -0.59744  -0.59008  -0.57431
 Alpha virt. eigenvalues --   -0.49133  -0.36646  -0.32221  -0.31262  -0.30735
 Alpha virt. eigenvalues --   -0.26038  -0.23620  -0.22256  -0.21593  -0.21047
 Alpha virt. eigenvalues --   -0.20984  -0.20464  -0.12447  -0.11201  -0.10412
 Alpha virt. eigenvalues --   -0.09447  -0.07001  -0.04524   0.02010   0.02249
 Alpha virt. eigenvalues --    0.06952   0.15566   0.30665   0.35562   0.37014
 Alpha virt. eigenvalues --    0.41050   0.41262   0.43056   0.43823   0.44758
 Alpha virt. eigenvalues --    0.45146   0.46845   0.47695   0.48147   0.54859
 Alpha virt. eigenvalues --    0.58167   0.58268   0.59493   0.61311   0.66329
 Alpha virt. eigenvalues --    0.66786   0.70485   0.71167   0.72920   0.73571
 Alpha virt. eigenvalues --    0.74258   0.89327   0.91639   0.93761   0.97764
 Alpha virt. eigenvalues --    1.00702   1.01323   1.02582   1.03429   1.04203
 Alpha virt. eigenvalues --    1.10375   1.10471   1.13961   1.14871   1.18682
 Alpha virt. eigenvalues --    1.21318   1.22350   1.24222   1.26544   1.30578
 Alpha virt. eigenvalues --    1.33696   1.39889   1.40069   1.41790   1.43826
 Alpha virt. eigenvalues --    1.49773   1.62904   1.65548   1.76234   1.79673
 Alpha virt. eigenvalues --    1.80237   1.83345   1.83421   1.84764   1.85346
 Alpha virt. eigenvalues --    1.86579   1.96710   1.97607   1.98935   1.99334
 Alpha virt. eigenvalues --    1.99744   2.01156   2.03690   2.13089   2.17915
 Alpha virt. eigenvalues --    2.19660   2.20588   2.21974   2.22488   2.25206
 Alpha virt. eigenvalues --    2.33628   2.37588   2.49280   2.49783   2.56055
 Alpha virt. eigenvalues --    2.56464   2.59437   2.81339   2.91152   2.93214
 Alpha virt. eigenvalues --    2.95232   2.96240   2.98239   3.05796   3.06746
 Alpha virt. eigenvalues --    3.08000   3.89737   3.96031   3.97299   3.99117
 Alpha virt. eigenvalues --    4.00454   4.22128   4.25755   4.46074   4.46205
 Alpha virt. eigenvalues --    4.46816   4.46899   4.48046   4.49035   4.49165
 Alpha virt. eigenvalues --    4.56618   4.61025  31.15126 106.10375
  Beta  occ. eigenvalues --  -19.19024 -19.18794 -19.17639 -14.40712  -3.70230
  Beta  occ. eigenvalues --   -2.43359  -2.43193  -2.39060  -1.32386  -1.31947
  Beta  occ. eigenvalues --   -1.31051  -1.17511  -0.87182  -0.86597  -0.86010
  Beta  occ. eigenvalues --   -0.81520  -0.80675  -0.80353  -0.78671  -0.75513
  Beta  occ. eigenvalues --   -0.71634  -0.68767  -0.66734  -0.64542  -0.59913
  Beta  occ. eigenvalues --   -0.59744  -0.59008  -0.57431
  Beta virt. eigenvalues --   -0.49133  -0.36646  -0.32221  -0.31262  -0.30735
  Beta virt. eigenvalues --   -0.26038  -0.23620  -0.22256  -0.21593  -0.21047
  Beta virt. eigenvalues --   -0.20984  -0.20464  -0.12447  -0.11201  -0.10412
  Beta virt. eigenvalues --   -0.09447  -0.07001  -0.04524   0.02010   0.02249
  Beta virt. eigenvalues --    0.06952   0.15566   0.30665   0.35562   0.37014
  Beta virt. eigenvalues --    0.41050   0.41262   0.43056   0.43823   0.44758
  Beta virt. eigenvalues --    0.45146   0.46845   0.47695   0.48147   0.54859
  Beta virt. eigenvalues --    0.58167   0.58268   0.59493   0.61311   0.66329
  Beta virt. eigenvalues --    0.66786   0.70485   0.71167   0.72920   0.73571
  Beta virt. eigenvalues --    0.74258   0.89327   0.91639   0.93761   0.97764
  Beta virt. eigenvalues --    1.00702   1.01323   1.02582   1.03429   1.04203
  Beta virt. eigenvalues --    1.10375   1.10471   1.13961   1.14871   1.18682
  Beta virt. eigenvalues --    1.21318   1.22350   1.24222   1.26544   1.30578
  Beta virt. eigenvalues --    1.33696   1.39889   1.40069   1.41790   1.43826
  Beta virt. eigenvalues --    1.49773   1.62904   1.65548   1.76234   1.79673
  Beta virt. eigenvalues --    1.80237   1.83345   1.83421   1.84764   1.85346
  Beta virt. eigenvalues --    1.86579   1.96710   1.97607   1.98935   1.99334
  Beta virt. eigenvalues --    1.99744   2.01156   2.03690   2.13089   2.17915
  Beta virt. eigenvalues --    2.19660   2.20588   2.21974   2.22488   2.25206
  Beta virt. eigenvalues --    2.33628   2.37588   2.49280   2.49783   2.56055
  Beta virt. eigenvalues --    2.56464   2.59437   2.81339   2.91152   2.93214
  Beta virt. eigenvalues --    2.95232   2.96240   2.98239   3.05796   3.06746
  Beta virt. eigenvalues --    3.08000   3.89737   3.96031   3.97299   3.99117
  Beta virt. eigenvalues --    4.00454   4.22128   4.25755   4.46074   4.46205
  Beta virt. eigenvalues --    4.46816   4.46899   4.48046   4.49035   4.49165
  Beta virt. eigenvalues --    4.56618   4.61025  31.15126 106.10375
          Condensed to atoms (all electrons):
               1          2          3          4          5          6
     1  Pd  17.027928   0.131057  -0.015346  -0.015861   0.155069  -0.016101
     2  O    0.131057   7.797743   0.297194   0.296822  -0.006839   0.003594
     3  H   -0.015346   0.297194   0.318261  -0.015772   0.000121  -0.000165
     4  H   -0.015861   0.296822  -0.015772   0.318354   0.000128  -0.000068
     5  N    0.155069  -0.006839   0.000121   0.000128   6.535406   0.324524
     6  H   -0.016101   0.003594  -0.000165  -0.000068   0.324524   0.339064
     7  H   -0.015575  -0.000061   0.000007   0.000002   0.327360  -0.015776
     8  O    0.136028  -0.000273   0.000012   0.000011  -0.002869   0.000026
     9  H   -0.015542   0.000013  -0.000004  -0.000000   0.000009   0.000011
    10  H   -0.015760   0.000014   0.000000  -0.000004  -0.000066   0.000001
    11  H   -0.014932  -0.000472   0.000011   0.000008   0.327530  -0.016169
    12  O    0.126226  -0.001298  -0.000404  -0.000426  -0.000867   0.000007
    13  H   -0.015478  -0.000303  -0.000041   0.000009   0.000036  -0.000004
    14  H   -0.015735  -0.000298   0.000009  -0.000047   0.000035  -0.000001
               7          8          9         10         11         12
     1  Pd  -0.015575   0.136028  -0.015542  -0.015760  -0.014932   0.126226
     2  O   -0.000061  -0.000273   0.000013   0.000014  -0.000472  -0.001298
     3  H    0.000007   0.000012  -0.000004   0.000000   0.000011  -0.000404
     4  H    0.000002   0.000011  -0.000000  -0.000004   0.000008  -0.000426
     5  N    0.327360  -0.002869   0.000009  -0.000066   0.327530  -0.000867
     6  H   -0.015776   0.000026   0.000011   0.000001  -0.016169   0.000007
     7  H    0.333709   0.000364  -0.000123   0.000023  -0.015903   0.000013
     8  O    0.000364   7.783632   0.293959   0.293385  -0.000622  -0.003453
     9  H   -0.000123   0.293959   0.318465  -0.014712   0.000011   0.000125
    10  H    0.000023   0.293385  -0.014712   0.321090   0.000016  -0.000420
    11  H   -0.015903  -0.000622   0.000011   0.000016   0.337508   0.000013
    12  O    0.000013  -0.003453   0.000125  -0.000420   0.000013   7.809364
    13  H   -0.000001  -0.000142  -0.000082  -0.000002   0.000001   0.298374
    14  H    0.000001  -0.000202  -0.000024  -0.000030  -0.000005   0.298163
              13         14
     1  Pd  -0.015478  -0.015735
     2  O   -0.000303  -0.000298
     3  H   -0.000041   0.000009
     4  H    0.000009  -0.000047
     5  N    0.000036   0.000035
     6  H   -0.000004  -0.000001
     7  H   -0.000001   0.000001
     8  O   -0.000142  -0.000202
     9  H   -0.000082  -0.000024
    10  H   -0.000002  -0.000030
    11  H    0.000001  -0.000005
    12  O    0.298374   0.298163
    13  H    0.323736  -0.015924
    14  H   -0.015924   0.323497
          Atomic-Atomic Spin Densities.
               1          2          3          4          5          6
     1  Pd   0.000000   0.000000   0.000000   0.000000   0.000000   0.000000
     2  O    0.000000   0.000000   0.000000   0.000000   0.000000   0.000000
     3  H    0.000000   0.000000   0.000000   0.000000   0.000000   0.000000
     4  H    0.000000   0.000000   0.000000   0.000000   0.000000   0.000000
     5  N    0.000000   0.000000   0.000000   0.000000   0.000000   0.000000
     6  H    0.000000   0.000000   0.000000   0.000000   0.000000   0.000000
     7  H    0.000000   0.000000   0.000000   0.000000   0.000000   0.000000
     8  O    0.000000   0.000000   0.000000   0.000000   0.000000   0.000000
     9  H    0.000000   0.000000   0.000000   0.000000   0.000000   0.000000
    10  H    0.000000   0.000000   0.000000   0.000000   0.000000   0.000000
    11  H    0.000000   0.000000   0.000000   0.000000   0.000000   0.000000
    12  O    0.000000   0.000000   0.000000   0.000000   0.000000   0.000000
    13  H    0.000000   0.000000   0.000000   0.000000   0.000000   0.000000
    14  H    0.000000   0.000000   0.000000   0.000000   0.000000   0.000000
               7          8          9         10         11         12
     1  Pd   0.000000   0.000000   0.000000   0.000000   0.000000   0.000000
     2  O    0.000000   0.000000   0.000000   0.000000   0.000000   0.000000
     3  H    0.000000   0.000000   0.000000   0.000000   0.000000   0.000000
     4  H    0.000000   0.000000   0.000000   0.000000   0.000000   0.000000
     5  N    0.000000   0.000000   0.000000   0.000000   0.000000   0.000000
     6  H    0.000000   0.000000   0.000000   0.000000   0.000000   0.000000
     7  H    0.000000   0.000000   0.000000   0.000000   0.000000   0.000000
     8  O    0.000000   0.000000   0.000000   0.000000   0.000000   0.000000
     9  H    0.000000   0.000000   0.000000   0.000000   0.000000   0.000000
    10  H    0.000000   0.000000   0.000000   0.000000   0.000000   0.000000
    11  H    0.000000   0.000000   0.000000   0.000000   0.000000   0.000000
    12  O    0.000000   0.000000   0.000000   0.000000   0.000000   0.000000
    13  H    0.000000   0.000000   0.000000   0.000000   0.000000   0.000000
    14  H    0.000000   0.000000   0.000000   0.000000   0.000000   0.000000
              13         14
     1  Pd   0.000000   0.000000
     2  O    0.000000   0.000000
     3  H    0.000000   0.000000
     4  H    0.000000   0.000000
     5  N    0.000000   0.000000
     6  H    0.000000   0.000000
     7  H    0.000000   0.000000
     8  O    0.000000   0.000000
     9  H    0.000000   0.000000
    10  H    0.000000   0.000000
    11  H    0.000000   0.000000
    12  O    0.000000   0.000000
    13  H    0.000000   0.000000
    14  H    0.000000   0.000000
 Mulliken charges and spin densities:
               1          2
     1  Pd   0.564021   0.000000
     2  O   -0.516893   0.000000
     3  H    0.416115   0.000000
     4  H    0.416844   0.000000
     5  N   -0.659577   0.000000
     6  H    0.381059   0.000000
     7  H    0.385960   0.000000
     8  O   -0.499855   0.000000
     9  H    0.417895   0.000000
    10  H    0.416464   0.000000
    11  H    0.383007   0.000000
    12  O   -0.525418   0.000000
    13  H    0.409819   0.000000
    14  H    0.410560   0.000000
 Sum of Mulliken charges =   2.00000   0.00000
 Mulliken charges and spin densities with hydrogens summed into heavy atoms:
               1          2
     1  Pd   0.564021   0.000000
     2  O    0.316065   0.000000
     5  N    0.490449   0.000000
     8  O    0.334503   0.000000
    12  O    0.294961   0.000000
 Electronic spatial extent (au):  <R**2>=            730.3340
 Charge=              2.0000 electrons
 Dipole moment (field-independent basis, Debye):
    X=             -0.1015    Y=             -1.5721    Z=              0.3738  Tot=              1.6191
 Quadrupole moment (field-independent basis, Debye-Ang):
   XX=             -9.7466   YY=             -6.6250   ZZ=            -32.9261
   XY=              0.5003   XZ=             -0.1677   YZ=              0.9454
 Traceless Quadrupole moment (field-independent basis, Debye-Ang):
   XX=              6.6860   YY=              9.8076   ZZ=            -16.4935
   XY=              0.5003   XZ=             -0.1677   YZ=              0.9454
 Octapole moment (field-independent basis, Debye-Ang**2):
  XXX=             -8.6765  YYY=            -25.0849  ZZZ=              2.0277  XYY=              0.9241
  XXY=              0.9082  XXZ=              0.2351  XZZ=             -3.4235  YZZ=             -4.0546
  YYZ=              1.3407  XYZ=             -0.6174
 Hexadecapole moment (field-independent basis, Debye-Ang**3):
 XXXX=           -253.2352 YYYY=           -208.5599 ZZZZ=            -40.7384 XXXY=             -9.8381
 XXXZ=             -0.2630 YYYX=              3.7576 YYYZ=              4.6035 ZZZX=              1.0839
 ZZZY=              2.9559 XXYY=             -3.3349 XXZZ=            -39.1448 YYZZ=            -30.0115
 XXYZ=              0.2320 YYXZ=             -2.3981 ZZXY=             -3.3758
 N-N= 3.079154283316D+02 E-N=-1.539282922755D+03  KE= 3.309936788085D+02
                          Isotropic Fermi Contact Couplings
        Atom                 a.u.       MegaHertz       Gauss      10(-4) cm-1
     1  Pd(105             0.00000      -0.00000      -0.00000      -0.00000
     2  O(17)              0.00000      -0.00000      -0.00000      -0.00000
     3  H(1)               0.00000       0.00000       0.00000       0.00000
     4  H(1)               0.00000       0.00000       0.00000       0.00000
     5  N(14)              0.00000       0.00000       0.00000       0.00000
     6  H(1)               0.00000       0.00000       0.00000       0.00000
     7  H(1)               0.00000       0.00000       0.00000       0.00000
     8  O(17)              0.00000      -0.00000      -0.00000      -0.00000
     9  H(1)               0.00000       0.00000       0.00000       0.00000
    10  H(1)               0.00000       0.00000       0.00000       0.00000
    11  H(1)               0.00000       0.00000       0.00000       0.00000
    12  O(17)              0.00000      -0.00000      -0.00000      -0.00000
    13  H(1)               0.00000       0.00000       0.00000       0.00000
    14  H(1)               0.00000       0.00000       0.00000       0.00000
 --------------------------------------------------------
       Center         ----  Spin Dipole Couplings  ----
                      3XX-RR        3YY-RR        3ZZ-RR
 --------------------------------------------------------
     1   Atom        0.000000      0.000000      0.000000
     2   Atom        0.000000      0.000000      0.000000
     3   Atom        0.000000      0.000000      0.000000
     4   Atom        0.000000      0.000000      0.000000
     5   Atom        0.000000      0.000000      0.000000
     6   Atom        0.000000      0.000000      0.000000
     7   Atom        0.000000      0.000000      0.000000
     8   Atom        0.000000      0.000000      0.000000
     9   Atom        0.000000      0.000000      0.000000
    10   Atom        0.000000      0.000000      0.000000
    11   Atom        0.000000      0.000000      0.000000
    12   Atom        0.000000      0.000000      0.000000
    13   Atom        0.000000      0.000000      0.000000
    14   Atom        0.000000      0.000000      0.000000
 --------------------------------------------------------
                        XY            XZ            YZ
 --------------------------------------------------------
     1   Atom        0.000000      0.000000      0.000000
     2   Atom        0.000000      0.000000      0.000000
     3   Atom        0.000000      0.000000      0.000000
     4   Atom        0.000000      0.000000      0.000000
     5   Atom        0.000000      0.000000      0.000000
     6   Atom        0.000000      0.000000      0.000000
     7   Atom        0.000000      0.000000      0.000000
     8   Atom        0.000000      0.000000      0.000000
     9   Atom        0.000000      0.000000      0.000000
    10   Atom        0.000000      0.000000      0.000000
    11   Atom        0.000000      0.000000      0.000000
    12   Atom        0.000000      0.000000      0.000000
    13   Atom        0.000000      0.000000      0.000000
    14   Atom        0.000000      0.000000      0.000000
 --------------------------------------------------------


 ---------------------------------------------------------------------------------
              Anisotropic Spin Dipole Couplings in Principal Axis System
 ---------------------------------------------------------------------------------

       Atom             a.u.   MegaHertz   Gauss  10(-4) cm-1        Axes

              Baa     0.0000    -0.000    -0.000    -0.000  1.0000  0.0000  0.0000
     1 Pd(105 Bbb     0.0000    -0.000    -0.000    -0.000 -0.0000  1.0000  0.0000
              Bcc     0.0000    -0.000    -0.000    -0.000  0.0000  0.0000  1.0000
 
              Baa     0.0000    -0.000    -0.000    -0.000  1.0000  0.0000  0.0000
     2 O(17)  Bbb     0.0000    -0.000    -0.000    -0.000 -0.0000  1.0000  0.0000
              Bcc     0.0000    -0.000    -0.000    -0.000  0.0000  0.0000  1.0000
 
              Baa     0.0000     0.000     0.000     0.000  1.0000  0.0000  0.0000
     3 H(1)   Bbb     0.0000     0.000     0.000     0.000 -0.0000  1.0000  0.0000
              Bcc     0.0000     0.000     0.000     0.000  0.0000  0.0000  1.0000
 
              Baa     0.0000     0.000     0.000     0.000  1.0000  0.0000  0.0000
     4 H(1)   Bbb     0.0000     0.000     0.000     0.000 -0.0000  1.0000  0.0000
              Bcc     0.0000     0.000     0.000     0.000  0.0000  0.0000  1.0000
 
              Baa     0.0000     0.000     0.000     0.000  1.0000  0.0000  0.0000
     5 N(14)  Bbb     0.0000     0.000     0.000     0.000 -0.0000  1.0000  0.0000
              Bcc     0.0000     0.000     0.000     0.000  0.0000  0.0000  1.0000
 
              Baa     0.0000     0.000     0.000     0.000  1.0000  0.0000  0.0000
     6 H(1)   Bbb     0.0000     0.000     0.000     0.000 -0.0000  1.0000  0.0000
              Bcc     0.0000     0.000     0.000     0.000  0.0000  0.0000  1.0000
 
              Baa     0.0000     0.000     0.000     0.000  1.0000  0.0000  0.0000
     7 H(1)   Bbb     0.0000     0.000     0.000     0.000 -0.0000  1.0000  0.0000
              Bcc     0.0000     0.000     0.000     0.000  0.0000  0.0000  1.0000
 
              Baa     0.0000    -0.000    -0.000    -0.000  1.0000  0.0000  0.0000
     8 O(17)  Bbb     0.0000    -0.000    -0.000    -0.000 -0.0000  1.0000  0.0000
              Bcc     0.0000    -0.000    -0.000    -0.000  0.0000  0.0000  1.0000
 
              Baa     0.0000     0.000     0.000     0.000  1.0000  0.0000  0.0000
     9 H(1)   Bbb     0.0000     0.000     0.000     0.000 -0.0000  1.0000  0.0000
              Bcc     0.0000     0.000     0.000     0.000  0.0000  0.0000  1.0000
 
              Baa     0.0000     0.000     0.000     0.000  1.0000  0.0000  0.0000
    10 H(1)   Bbb     0.0000     0.000     0.000     0.000 -0.0000  1.0000  0.0000
              Bcc     0.0000     0.000     0.000     0.000  0.0000  0.0000  1.0000
 
              Baa     0.0000     0.000     0.000     0.000  1.0000  0.0000  0.0000
    11 H(1)   Bbb     0.0000     0.000     0.000     0.000 -0.0000  1.0000  0.0000
              Bcc     0.0000     0.000     0.000     0.000  0.0000  0.0000  1.0000
 
              Baa     0.0000    -0.000    -0.000    -0.000  1.0000  0.0000  0.0000
    12 O(17)  Bbb     0.0000    -0.000    -0.000    -0.000 -0.0000  1.0000  0.0000
              Bcc     0.0000    -0.000    -0.000    -0.000  0.0000  0.0000  1.0000
 
              Baa     0.0000     0.000     0.000     0.000  1.0000  0.0000  0.0000
    13 H(1)   Bbb     0.0000     0.000     0.000     0.000 -0.0000  1.0000  0.0000
              Bcc     0.0000     0.000     0.000     0.000  0.0000  0.0000  1.0000
 
              Baa     0.0000     0.000     0.000     0.000  1.0000  0.0000  0.0000
    14 H(1)   Bbb     0.0000     0.000     0.000     0.000 -0.0000  1.0000  0.0000
              Bcc     0.0000     0.000     0.000     0.000  0.0000  0.0000  1.0000
 

 ---------------------------------------------------------------------------------

   1 Symmetry operations used in ECPInt.
 ECPInt:  NShTT=    1770 NPrTT=    6440 LenC2=    1753 LenP2D=    5045.
 LDataN:  DoStor=T MaxTD1= 9 Len=  602
 Calling FoFJK, ICntrl=      2527 FMM=F ISym2X=0 I1Cent= 0 IOpClX= 0 NMat=1 NMatS=1 NMatT=0.
 Defaulting to unpruned grid for atomic number  46.
 Defaulting to unpruned grid for atomic number  46.
 Defaulting to unpruned grid for atomic number  46.
 Defaulting to unpruned grid for atomic number  46.
 Defaulting to unpruned grid for atomic number  46.
 Defaulting to unpruned grid for atomic number  46.
 Defaulting to unpruned grid for atomic number  46.
 Defaulting to unpruned grid for atomic number  46.
 Defaulting to unpruned grid for atomic number  46.
 Defaulting to unpruned grid for atomic number  46.
 Defaulting to unpruned grid for atomic number  46.
 Defaulting to unpruned grid for atomic number  46.
 Defaulting to unpruned grid for atomic number  46.
 Defaulting to unpruned grid for atomic number  46.
 Defaulting to unpruned grid for atomic number  46.
 Defaulting to unpruned grid for atomic number  46.
 Defaulting to unpruned grid for atomic number  46.
 Defaulting to unpruned grid for atomic number  46.
 Defaulting to unpruned grid for atomic number  46.
 Defaulting to unpruned grid for atomic number  46.
 Defaulting to unpruned grid for atomic number  46.
 Defaulting to unpruned grid for atomic number  46.
 Defaulting to unpruned grid for atomic number  46.
 Defaulting to unpruned grid for atomic number  46.
 Defaulting to unpruned grid for atomic number  46.
 Defaulting to unpruned grid for atomic number  46.
 Defaulting to unpruned grid for atomic number  46.
 Defaulting to unpruned grid for atomic number  46.
 Defaulting to unpruned grid for atomic number  46.
 Defaulting to unpruned grid for atomic number  46.
 ***** Axes restored to original set *****
 -------------------------------------------------------------------
 Center     Atomic                   Forces (Hartrees/Bohr)
 Number     Number              X              Y              Z
 -------------------------------------------------------------------
      1       46           0.000017067    0.000009554    0.000004557
      2        8          -0.000166990   -0.000177926   -0.000010849
      3        1          -0.000104773   -0.000131260   -0.000044029
      4        1          -0.000097765   -0.000127869    0.000050439
      5        7          -0.000177593    0.000169388    0.000001212
      6        1          -0.000106731    0.000086668   -0.000020379
      7        1          -0.000089299    0.000106492   -0.000037372
      8        8           0.000181078    0.000153700   -0.000006272
      9        1           0.000125240    0.000098152   -0.000038427
     10        1           0.000123251    0.000099090    0.000047534
     11        1          -0.000101395    0.000101703    0.000050067
     12        8           0.000160570   -0.000156263   -0.000000485
     13        1           0.000118518   -0.000118686   -0.000039260
     14        1           0.000118821   -0.000112743    0.000043263
 -------------------------------------------------------------------
 Cartesian Forces:  Max     0.000181078 RMS     0.000104784

 GradGradGradGradGradGradGradGradGradGradGradGradGradGradGradGradGradGrad
 Berny optimization.
 FormGI is forming the generalized inverse of G from B-inverse, IUseBI=4.
 Internal  Forces:  Max     0.000663941 RMS     0.000164255
 Search for a local minimum.
 Step number   1 out of a maximum of   74
 All quantities printed in internal units (Hartrees-Bohrs-Radians)
 Mixed Optimization -- En-DIIS/RFO-DIIS
 Second derivative matrix not updated -- first step.
 ITU=  0
     Eigenvalues ---    0.00230   0.00230   0.00230   0.00230   0.00230
     Eigenvalues ---    0.00231   0.01042   0.01577   0.02251   0.04431
     Eigenvalues ---    0.04551   0.11449   0.11496   0.14238   0.15299
     Eigenvalues ---    0.15591   0.15903   0.15962   0.15964   0.15974
     Eigenvalues ---    0.15985   0.15991   0.15994   0.16000   0.16000
     Eigenvalues ---    0.17007   0.24995   0.42349   0.42418   0.42461
     Eigenvalues ---    0.50667   0.50688   0.50999   0.51024   0.51259
     Eigenvalues ---    0.51287
 RFO step:  Lambda=-1.12998981D-05 EMin= 2.30000000D-03
 Linear search not attempted -- first point.
 Iteration  1 RMS(Cart)=  0.00242545 RMS(Int)=  0.00000166
 Iteration  2 RMS(Cart)=  0.00000159 RMS(Int)=  0.00000082
 Iteration  3 RMS(Cart)=  0.00000000 RMS(Int)=  0.00000082
 Variable       Old X    -DE/DX   Delta X   Delta X   Delta X     New X
                                 (Linear)    (Quad)   (Total)
    R1        3.90113  -0.00057   0.00000  -0.00371  -0.00371   3.89743
    R2        3.82328  -0.00066   0.00000  -0.00390  -0.00390   3.81937
    R3        3.88704  -0.00055   0.00000  -0.00351  -0.00351   3.88353
    R4        3.95562  -0.00055   0.00000  -0.00389  -0.00389   3.95173
    R5        1.85546  -0.00012   0.00000  -0.00024  -0.00024   1.85522
    R6        1.85571  -0.00013   0.00000  -0.00025  -0.00025   1.85546
    R7        1.95040  -0.00007   0.00000  -0.00015  -0.00015   1.95025
    R8        1.95094  -0.00008   0.00000  -0.00019  -0.00019   1.95075
    R9        1.95181  -0.00010   0.00000  -0.00023  -0.00023   1.95158
   R10        1.85898  -0.00011   0.00000  -0.00021  -0.00021   1.85877
   R11        1.85878  -0.00012   0.00000  -0.00023  -0.00023   1.85855
   R12        1.85289  -0.00012   0.00000  -0.00023  -0.00023   1.85266
   R13        1.85316  -0.00012   0.00000  -0.00023  -0.00023   1.85293
    A1        1.50258  -0.00003   0.00000  -0.00028  -0.00028   1.50230
    A2        1.71326   0.00004   0.00000   0.00027   0.00027   1.71353
    A3        1.51930  -0.00005   0.00000  -0.00030  -0.00030   1.51900
    A4        1.54781   0.00004   0.00000   0.00030   0.00031   1.54811
    A5        2.05134  -0.00013   0.00000  -0.00128  -0.00128   2.05006
    A6        2.04949  -0.00011   0.00000  -0.00115  -0.00115   2.04834
    A7        1.87332   0.00014   0.00000   0.00022   0.00022   1.87354
    A8        1.93435  -0.00011   0.00000  -0.00066  -0.00066   1.93369
    A9        1.93562  -0.00011   0.00000  -0.00066  -0.00066   1.93496
   A10        1.94124  -0.00011   0.00000  -0.00073  -0.00073   1.94051
   A11        1.89242   0.00012   0.00000   0.00087   0.00087   1.89329
   A12        1.87879   0.00011   0.00000   0.00069   0.00069   1.87948
   A13        1.87922   0.00011   0.00000   0.00060   0.00060   1.87982
   A14        1.98545  -0.00015   0.00000  -0.00136  -0.00136   1.98409
   A15        2.00235  -0.00014   0.00000  -0.00128  -0.00128   2.00107
   A16        1.85274   0.00013   0.00000   0.00015   0.00015   1.85288
   A17        2.09077  -0.00011   0.00000  -0.00132  -0.00133   2.08945
   A18        2.08370  -0.00011   0.00000  -0.00128  -0.00128   2.08242
   A19        1.87033   0.00015   0.00000   0.00015   0.00014   1.87048
   A20        3.26107   0.00008   0.00000   0.00057   0.00057   3.26164
   A21        3.06711  -0.00001   0.00000   0.00001   0.00001   3.06712
   A22        3.16413   0.00000   0.00000   0.00054   0.00054   3.16467
   A23        3.13172  -0.00000   0.00000  -0.00001  -0.00001   3.13170
    D1       -2.05224  -0.00003   0.00000  -0.00256  -0.00256  -2.05480
    D2        1.95380   0.00002   0.00000  -0.00018  -0.00018   1.95362
    D3        1.07779  -0.00003   0.00000  -0.00262  -0.00261   1.07517
    D4       -1.19936   0.00002   0.00000  -0.00023  -0.00023  -1.19959
    D5        0.23360   0.00001   0.00000   0.00037   0.00037   0.23397
    D6        2.42198  -0.00003   0.00000  -0.00150  -0.00150   2.42048
    D7       -2.10249   0.00003   0.00000   0.00264   0.00264  -2.09986
    D8        0.08589  -0.00000   0.00000   0.00077   0.00077   0.08666
    D9        0.32795  -0.00000   0.00000  -0.00055  -0.00055   0.32740
   D10        2.43085   0.00001   0.00000  -0.00033  -0.00033   2.43052
   D11       -1.76150  -0.00000   0.00000  -0.00050  -0.00050  -1.76200
   D12       -2.79246  -0.00000   0.00000  -0.00002  -0.00002  -2.79248
   D13       -0.68956   0.00001   0.00000   0.00020   0.00020  -0.68937
   D14        1.40127  -0.00000   0.00000   0.00003   0.00003   1.40130
   D15       -0.79921   0.00001   0.00000   0.00150   0.00150  -0.79771
   D16        1.60433  -0.00002   0.00000  -0.00199  -0.00199   1.60234
   D17        1.30387   0.00002   0.00000   0.00171   0.00171   1.30558
   D18       -2.57577  -0.00001   0.00000  -0.00178  -0.00178  -2.57755
   D19       -2.91057   0.00002   0.00000   0.00159   0.00159  -2.90897
   D20       -0.50703  -0.00002   0.00000  -0.00190  -0.00190  -0.50892
   D21        2.27892   0.00003   0.00000   0.00290   0.00290   2.28183
   D22       -1.86616  -0.00002   0.00000   0.00094   0.00094  -1.86522
   D23       -0.85279   0.00003   0.00000   0.00292   0.00292  -0.84988
   D24        1.28531  -0.00002   0.00000   0.00095   0.00096   1.28626
   D25       -1.11257   0.00002   0.00000   0.00200   0.00200  -1.11057
   D26        1.25152  -0.00001   0.00000  -0.00135  -0.00135   1.25017
   D27        2.00648   0.00002   0.00000   0.00146   0.00146   2.00794
   D28       -1.91261  -0.00002   0.00000  -0.00189  -0.00189  -1.91450
         Item               Value     Threshold  Converged?
 Maximum Force            0.000664     0.000450     NO 
 RMS     Force            0.000164     0.000300     YES
 Maximum Displacement     0.006771     0.001800     NO 
 RMS     Displacement     0.002426     0.001200     NO 
 Predicted change in Energy=-5.648036D-06
 GradGradGradGradGradGradGradGradGradGradGradGradGradGradGradGradGradGrad

                          Input orientation:                          
 ---------------------------------------------------------------------
 Center     Atomic      Atomic             Coordinates (Angstroms)
 Number     Number       Type             X           Y           Z
 ---------------------------------------------------------------------
      1         46           0        0.002873    0.010206   -0.005150
      2          8           0        1.532011    1.394102    0.008688
      3          1           0        1.588194    1.998984    0.779902
      4          1           0        1.655881    1.937837   -0.799443
      5          7           0        1.458363   -1.392031    0.009984
      6          1           0        2.352973   -0.988051    0.328657
      7          1           0        1.210000   -2.172993    0.637710
      8          8           0       -1.344431   -1.541258    0.027449
      9          1           0       -2.043666   -1.442930    0.712219
     10          1           0       -1.813825   -1.694901   -0.823043
     11          1           0        1.609312   -1.783409   -0.933716
     12          8           0       -1.606646    1.345260    0.002318
     13          1           0       -1.740714    1.940560    0.769648
     14          1           0       -1.802562    1.865528   -0.805377
 ---------------------------------------------------------------------
                    Distance matrix (angstroms):
                    1          2          3          4          5
     1  Pd   0.000000
     2  O    2.062431   0.000000
     3  H    2.661726   0.981739   0.000000
     4  H    2.660657   0.981869   1.581977   0.000000
     5  N    2.021126   2.787107   3.479744   3.432522   0.000000
     6  H    2.575057   2.539884   3.116230   3.212378   1.032027
     7  H    2.576195   3.636416   4.191496   4.377572   1.032291
     8  O    2.055075   4.109819   4.658304   4.667947   2.806818
     9  H    2.610469   4.618352   5.004174   5.234631   3.572105
    10  H    2.622353   4.629075   5.271428   5.023565   3.390115
    11  H    2.580686   3.315219   4.152522   3.723959   1.032731
    12  O    2.091166   3.139044   3.352461   3.411459   4.109392
    13  H    2.714162   3.404175   3.329437   3.741512   4.681597
    14  H    2.709645   3.464725   3.745417   3.459204   4.680826
                    6          7          8          9         10
     6  H    0.000000
     7  H    1.675109   0.000000
     8  O    3.750675   2.701227   0.000000
     9  H    4.436719   3.335399   0.983619   0.000000
    10  H    4.380441   3.392033   0.983501   1.572688   0.000000
    11  H    1.667098   1.667515   3.115618   4.021104   3.426069
    12  O    4.607540   4.551409   2.898513   2.910146   3.157012
    13  H    5.052674   5.064133   3.582033   3.397512   3.969710
    14  H    5.166954   5.240961   3.536901   3.647893   3.560490
                   11         12         13         14
    11  H    0.000000
    12  O    4.583353   0.000000
    13  H    5.290754   0.980384   0.000000
    14  H    4.997209   0.980526   1.578024   0.000000
 Stoichiometry    H9NO3Pd(2+)
 Framework group  C1[X(H9NO3Pd)]
 Deg. of freedom    36
 Full point group                 C1      NOp   1
 Largest Abelian subgroup         C1      NOp   1
 Largest concise Abelian subgroup C1      NOp   1
                         Standard orientation:                         
 ---------------------------------------------------------------------
 Center     Atomic      Atomic             Coordinates (Angstroms)
 Number     Number       Type             X           Y           Z
 ---------------------------------------------------------------------
      1         46           0        0.002838   -0.010544    0.005234
      2          8           0        1.533101   -1.393195   -0.008605
      3          1           0        1.589776   -1.998032   -0.779819
      4          1           0        1.657413   -1.936830    0.799526
      5          7           0        1.457187    1.392877   -0.009900
      6          1           0        2.352125    0.989625   -0.328574
      7          1           0        1.208188    2.173636   -0.637626
      8          8           0       -1.345728    1.539824   -0.027366
      9          1           0       -2.044883    1.440927   -0.712136
     10          1           0       -1.815247    1.693085    0.823127
     11          1           0        1.607817    1.784378    0.933800
     12          8           0       -1.605595   -1.346907   -0.002234
     13          1           0       -1.739179   -1.942316   -0.769565
     14          1           0       -1.801087   -1.867334    0.805460
 ---------------------------------------------------------------------
 Rotational constants (GHZ):           3.1788930           2.9412613           1.5764931
 Basis read from rwf:  (5D, 7F)
 Pseudo-potential data read from rwf file.
 There are   176 symmetry adapted cartesian basis functions of A   symmetry.
 There are   157 symmetry adapted basis functions of A   symmetry.
   157 basis functions,   274 primitive gaussians,   176 cartesian basis functions
    28 alpha electrons       28 beta electrons
       nuclear repulsion energy       308.1953240616 Hartrees.
 NAtoms=   14 NActive=   14 NUniq=   14 SFac= 1.00D+00 NAtFMM=   60 NAOKFM=F Big=F
 Integral buffers will be    131072 words long.
 Raffenetti 2 integral format.
 Two-electron integral symmetry is turned on.
 Nuclear repulsion after empirical dispersion term =      308.1851353755 Hartrees.
 One-electron integrals computed using PRISM.
   1 Symmetry operations used in ECPInt.
 ECPInt:  NShTT=    1770 NPrTT=    6440 LenC2=    1753 LenP2D=    5048.
 LDataN:  DoStor=T MaxTD1= 8 Len=  415
 NBasis=   157 RedAO= T EigKep=  7.29D-03  NBF=   157
 NBsUse=   157 1.00D-06 EigRej= -1.00D+00 NBFU=   157
 Defaulting to unpruned grid for atomic number  46.
 Initial guess from the checkpoint file:  "1_nh3_3_h2o.chk"
 B after Tr=    -0.000000   -0.000000   -0.000000
         Rot=    1.000000   -0.000005    0.000031   -0.000368 Ang=  -0.04 deg.
 Initial guess <Sx>= 0.0000 <Sy>= 0.0000 <Sz>= 0.0000 <S**2>=-0.0000 S=-0.0000
 Requested convergence on RMS density matrix=1.00D-08 within  32 cycles.
 Requested convergence on MAX density matrix=1.00D-06.
 Requested convergence on             energy=1.00D-06.
 No special actions if energy rises.
 Defaulting to unpruned grid for atomic number  46.
 Defaulting to unpruned grid for atomic number  46.
 Defaulting to unpruned grid for atomic number  46.
 Defaulting to unpruned grid for atomic number  46.
 Defaulting to unpruned grid for atomic number  46.
 Defaulting to unpruned grid for atomic number  46.
 Defaulting to unpruned grid for atomic number  46.
 Defaulting to unpruned grid for atomic number  46.
 Defaulting to unpruned grid for atomic number  46.
 Defaulting to unpruned grid for atomic number  46.
 Defaulting to unpruned grid for atomic number  46.
 Defaulting to unpruned grid for atomic number  46.
 Defaulting to unpruned grid for atomic number  46.
 Defaulting to unpruned grid for atomic number  46.
 Defaulting to unpruned grid for atomic number  46.
 Defaulting to unpruned grid for atomic number  46.
 Defaulting to unpruned grid for atomic number  46.
 Defaulting to unpruned grid for atomic number  46.
 Defaulting to unpruned grid for atomic number  46.
 Defaulting to unpruned grid for atomic number  46.
 Defaulting to unpruned grid for atomic number  46.
 Defaulting to unpruned grid for atomic number  46.
 Defaulting to unpruned grid for atomic number  46.
 Defaulting to unpruned grid for atomic number  46.
 Defaulting to unpruned grid for atomic number  46.
 Defaulting to unpruned grid for atomic number  46.
 Defaulting to unpruned grid for atomic number  46.
 Defaulting to unpruned grid for atomic number  46.
 Defaulting to unpruned grid for atomic number  46.
 Defaulting to unpruned grid for atomic number  46.
 SCF Done:  E(UPBE-PBE) =  -412.907646243     A.U. after    8 cycles
            NFock=  8  Conv=0.69D-08     -V/T= 2.2475
 <Sx>= 0.0000 <Sy>= 0.0000 <Sz>= 0.0000 <S**2>= 0.0000 S= 0.0000
 <L.S>=  0.00000000000    
 Annihilation of the first spin contaminant:
 S**2 before annihilation     0.0000,   after    -0.0000
 QCSCF skips out because SCF is already converged.
   1 Symmetry operations used in ECPInt.
 ECPInt:  NShTT=    1770 NPrTT=    6440 LenC2=    1753 LenP2D=    5048.
 LDataN:  DoStor=T MaxTD1= 9 Len=  602
 Calling FoFJK, ICntrl=      2527 FMM=F ISym2X=0 I1Cent= 0 IOpClX= 0 NMat=1 NMatS=1 NMatT=0.
 Defaulting to unpruned grid for atomic number  46.
 Defaulting to unpruned grid for atomic number  46.
 Defaulting to unpruned grid for atomic number  46.
 Defaulting to unpruned grid for atomic number  46.
 Defaulting to unpruned grid for atomic number  46.
 Defaulting to unpruned grid for atomic number  46.
 Defaulting to unpruned grid for atomic number  46.
 Defaulting to unpruned grid for atomic number  46.
 Defaulting to unpruned grid for atomic number  46.
 Defaulting to unpruned grid for atomic number  46.
 Defaulting to unpruned grid for atomic number  46.
 Defaulting to unpruned grid for atomic number  46.
 Defaulting to unpruned grid for atomic number  46.
 Defaulting to unpruned grid for atomic number  46.
 Defaulting to unpruned grid for atomic number  46.
 Defaulting to unpruned grid for atomic number  46.
 Defaulting to unpruned grid for atomic number  46.
 Defaulting to unpruned grid for atomic number  46.
 Defaulting to unpruned grid for atomic number  46.
 Defaulting to unpruned grid for atomic number  46.
 Defaulting to unpruned grid for atomic number  46.
 Defaulting to unpruned grid for atomic number  46.
 Defaulting to unpruned grid for atomic number  46.
 Defaulting to unpruned grid for atomic number  46.
 Defaulting to unpruned grid for atomic number  46.
 Defaulting to unpruned grid for atomic number  46.
 Defaulting to unpruned grid for atomic number  46.
 Defaulting to unpruned grid for atomic number  46.
 Defaulting to unpruned grid for atomic number  46.
 Defaulting to unpruned grid for atomic number  46.
 ***** Axes restored to original set *****
 -------------------------------------------------------------------
 Center     Atomic                   Forces (Hartrees/Bohr)
 Number     Number              X              Y              Z
 -------------------------------------------------------------------
      1       46          -0.000032702    0.000038119    0.000020973
      2        8          -0.000038179   -0.000029273   -0.000013824
      3        1          -0.000017745   -0.000018188    0.000038706
      4        1          -0.000011255   -0.000013083   -0.000039911
      5        7          -0.000012910    0.000027209    0.000007999
      6        1          -0.000004305   -0.000009507   -0.000007820
      7        1           0.000003584    0.000005271   -0.000008478
      8        8           0.000045156    0.000025257   -0.000004553
      9        1          -0.000000311    0.000033049    0.000030358
     10        1           0.000013618    0.000010889   -0.000036929
     11        1           0.000004309   -0.000000318    0.000008406
     12        8           0.000007422   -0.000032887    0.000007812
     13        1           0.000023269   -0.000016705    0.000043101
     14        1           0.000020048   -0.000019833   -0.000045840
 -------------------------------------------------------------------
 Cartesian Forces:  Max     0.000045840 RMS     0.000023903

 GradGradGradGradGradGradGradGradGradGradGradGradGradGradGradGradGradGrad
 Berny optimization.
 Using GEDIIS/GDIIS optimizer.
 FormGI is forming the generalized inverse of G from B-inverse, IUseBI=4.
 Internal  Forces:  Max     0.000091241 RMS     0.000026476
 Search for a local minimum.
 Step number   2 out of a maximum of   74
 All quantities printed in internal units (Hartrees-Bohrs-Radians)
 Mixed Optimization -- En-DIIS/RFO-DIIS
 Swapping is turned off.
 Update second derivatives using D2CorX and points    1    2
 DE= -6.29D-06 DEPred=-5.65D-06 R= 1.11D+00
 TightC=F SS=  1.41D+00  RLast= 1.20D-02 DXNew= 5.0454D-01 3.5946D-02
 Trust test= 1.11D+00 RLast= 1.20D-02 DXMaxT set to 3.00D-01
 ITU=  1  0
     Eigenvalues ---    0.00227   0.00230   0.00230   0.00230   0.00231
     Eigenvalues ---    0.00233   0.01050   0.01593   0.02251   0.04438
     Eigenvalues ---    0.04556   0.11452   0.11545   0.12731   0.14675
     Eigenvalues ---    0.15446   0.15850   0.15903   0.15962   0.15965
     Eigenvalues ---    0.15983   0.15994   0.15996   0.16000   0.16140
     Eigenvalues ---    0.17471   0.25012   0.42347   0.42412   0.42455
     Eigenvalues ---    0.50676   0.50760   0.51012   0.51109   0.51273
     Eigenvalues ---    0.51560
 En-DIIS/RFO-DIIS/Sim-DIIS IScMMF=       -3 using points:     2    1
 RFO step:  Lambda=-6.82975460D-07.
 DidBck=F Rises=F RFO-DIIS coefs:    1.15682   -0.15682
 Iteration  1 RMS(Cart)=  0.00414138 RMS(Int)=  0.00000421
 Iteration  2 RMS(Cart)=  0.00000717 RMS(Int)=  0.00000126
 Iteration  3 RMS(Cart)=  0.00000000 RMS(Int)=  0.00000126
 Variable       Old X    -DE/DX   Delta X   Delta X   Delta X     New X
                                 (Linear)    (Quad)   (Total)
    R1        3.89743  -0.00009  -0.00058  -0.00025  -0.00083   3.89660
    R2        3.81937  -0.00002  -0.00061   0.00029  -0.00032   3.81905
    R3        3.88353  -0.00009  -0.00055  -0.00027  -0.00082   3.88271
    R4        3.95173  -0.00008  -0.00061  -0.00023  -0.00084   3.95089
    R5        1.85522   0.00002  -0.00004   0.00007   0.00003   1.85525
    R6        1.85546   0.00002  -0.00004   0.00008   0.00004   1.85551
    R7        1.95025  -0.00001  -0.00002  -0.00001  -0.00003   1.95021
    R8        1.95075  -0.00001  -0.00003  -0.00000  -0.00003   1.95071
    R9        1.95158  -0.00001  -0.00004   0.00001  -0.00003   1.95155
   R10        1.85877   0.00002  -0.00003   0.00008   0.00005   1.85882
   R11        1.85855   0.00002  -0.00004   0.00008   0.00004   1.85859
   R12        1.85266   0.00002  -0.00004   0.00007   0.00004   1.85269
   R13        1.85293   0.00002  -0.00004   0.00008   0.00004   1.85297
    A1        1.50230  -0.00000  -0.00004   0.00010   0.00006   1.50235
    A2        1.71353   0.00001   0.00004  -0.00003   0.00002   1.71354
    A3        1.51900   0.00002  -0.00005   0.00017   0.00012   1.51912
    A4        1.54811  -0.00002   0.00005  -0.00020  -0.00015   1.54797
    A5        2.05006  -0.00004  -0.00020  -0.00010  -0.00030   2.04976
    A6        2.04834  -0.00002  -0.00018  -0.00004  -0.00021   2.04812
    A7        1.87354   0.00005   0.00003   0.00033   0.00036   1.87390
    A8        1.93369   0.00001  -0.00010   0.00015   0.00005   1.93374
    A9        1.93496   0.00000  -0.00010   0.00008  -0.00003   1.93493
   A10        1.94051   0.00001  -0.00011   0.00011  -0.00000   1.94050
   A11        1.89329  -0.00000   0.00014  -0.00010   0.00004   1.89333
   A12        1.87948  -0.00001   0.00011  -0.00014  -0.00003   1.87945
   A13        1.87982  -0.00000   0.00009  -0.00012  -0.00003   1.87979
   A14        1.98409  -0.00004  -0.00021  -0.00025  -0.00046   1.98363
   A15        2.00107  -0.00003  -0.00020  -0.00017  -0.00037   2.00069
   A16        1.85288   0.00004   0.00002   0.00014   0.00016   1.85304
   A17        2.08945  -0.00004  -0.00021  -0.00017  -0.00038   2.08907
   A18        2.08242  -0.00004  -0.00020  -0.00019  -0.00039   2.08202
   A19        1.87048   0.00006   0.00002   0.00033   0.00035   1.87083
   A20        3.26164  -0.00002   0.00009  -0.00023  -0.00013   3.26151
   A21        3.06712  -0.00001   0.00000  -0.00003  -0.00003   3.06709
   A22        3.16467  -0.00001   0.00008  -0.00616  -0.00607   3.15860
   A23        3.13170  -0.00000  -0.00000  -0.00168  -0.00169   3.13002
    D1       -2.05480   0.00000  -0.00040   0.00077   0.00037  -2.05443
    D2        1.95362  -0.00000  -0.00003   0.00040   0.00037   1.95399
    D3        1.07517   0.00000  -0.00041  -0.00045  -0.00086   1.07431
    D4       -1.19959  -0.00001  -0.00004  -0.00082  -0.00086  -1.20045
    D5        0.23397   0.00001   0.00006   0.00120   0.00126   0.23523
    D6        2.42048  -0.00001  -0.00024   0.00037   0.00013   2.42061
    D7       -2.09986   0.00001   0.00041   0.00111   0.00153  -2.09833
    D8        0.08666  -0.00000   0.00012   0.00027   0.00039   0.08705
    D9        0.32740   0.00001  -0.00009   0.00318   0.00309   0.33049
   D10        2.43052   0.00001  -0.00005   0.00321   0.00315   2.43367
   D11       -1.76200   0.00001  -0.00008   0.00318   0.00310  -1.75890
   D12       -2.79248  -0.00001  -0.00000  -0.00313  -0.00314  -2.79562
   D13       -0.68937  -0.00000   0.00003  -0.00310  -0.00307  -0.69244
   D14        1.40130  -0.00001   0.00000  -0.00313  -0.00312   1.39818
   D15       -0.79771   0.00000   0.00024   0.00015   0.00038  -0.79733
   D16        1.60234  -0.00000  -0.00031   0.00030  -0.00001   1.60233
   D17        1.30558   0.00000   0.00027  -0.00031  -0.00004   1.30554
   D18       -2.57755  -0.00000  -0.00028  -0.00016  -0.00044  -2.57799
   D19       -2.90897  -0.00000   0.00025  -0.00022   0.00003  -2.90894
   D20       -0.50892  -0.00000  -0.00030  -0.00006  -0.00036  -0.50929
   D21        2.28183   0.00000   0.00046   0.00027   0.00073   2.28255
   D22       -1.86522  -0.00000   0.00015   0.00012   0.00027  -1.86495
   D23       -0.84988   0.00001   0.00046   0.00196   0.00241  -0.84747
   D24        1.28626   0.00000   0.00015   0.00180   0.00195   1.28822
   D25       -1.11057  -0.00000   0.00031  -0.00302  -0.00270  -1.11328
   D26        1.25017  -0.00001  -0.00021  -0.00292  -0.00314   1.24704
   D27        2.00794   0.00001   0.00023   0.00314   0.00337   2.01131
   D28       -1.91450   0.00001  -0.00030   0.00323   0.00294  -1.91156
         Item               Value     Threshold  Converged?
 Maximum Force            0.000091     0.000450     YES
 RMS     Force            0.000026     0.000300     YES
 Maximum Displacement     0.010791     0.001800     NO 
 RMS     Displacement     0.004141     0.001200     NO 
 Predicted change in Energy=-3.414329D-07
 GradGradGradGradGradGradGradGradGradGradGradGradGradGradGradGradGradGrad

                          Input orientation:                          
 ---------------------------------------------------------------------
 Center     Atomic      Atomic             Coordinates (Angstroms)
 Number     Number       Type             X           Y           Z
 ---------------------------------------------------------------------
      1         46           0        0.002856    0.010139   -0.002769
      2          8           0        1.531591    1.393873    0.004661
      3          1           0        1.589135    2.000392    0.774509
      4          1           0        1.653537    1.935691   -0.805075
      5          7           0        1.458272   -1.391920    0.013201
      6          1           0        2.352790   -0.987855    0.331967
      7          1           0        1.209725   -2.172689    0.641065
      8          8           0       -1.344327   -1.540976    0.023540
      9          1           0       -2.045434   -1.443214    0.706509
     10          1           0       -1.811308   -1.692823   -0.828629
     11          1           0        1.609486   -1.783583   -0.930321
     12          8           0       -1.606421    1.344777    0.006877
     13          1           0       -1.739484    1.939590    0.774784
     14          1           0       -1.802656    1.865502   -0.800472
 ---------------------------------------------------------------------
                    Distance matrix (angstroms):
                    1          2          3          4          5
     1  Pd   0.000000
     2  O    2.061990   0.000000
     3  H    2.661117   0.981754   0.000000
     4  H    2.660112   0.981891   1.582220   0.000000
     5  N    2.020956   2.786771   3.479151   3.432303   0.000000
     6  H    2.574923   2.540497   3.115867   3.213867   1.032009
     7  H    2.576004   3.637166   4.192418   4.378023   1.032274
     8  O    2.054642   4.109087   4.659446   4.664869   2.806579
     9  H    2.609752   4.619173   5.007308   5.232999   3.572011
    10  H    2.621701   4.625693   5.270000   5.017153   3.389598
    11  H    2.580514   3.313078   4.150340   3.721643   1.032715
    12  O    2.090723   3.138396   3.351218   3.411125   4.108758
    13  H    2.713506   3.404530   3.329174   3.742801   4.680236
    14  H    2.708980   3.462350   3.742059   3.456909   4.680439
                    6          7          8          9         10
     6  H    0.000000
     7  H    1.675103   0.000000
     8  O    3.750966   2.702514   0.000000
     9  H    4.437568   3.336538   0.983644   0.000000
    10  H    4.379917   3.393657   0.983525   1.572822   0.000000
    11  H    1.667050   1.667473   3.113474   4.019143   3.423508
    12  O    4.606756   4.550323   2.897678   2.907767   3.157066
    13  H    5.051012   5.062268   3.582577   3.397298   3.971211
    14  H    5.166409   5.240177   3.534565   3.643835   3.558447
                   11         12         13         14
    11  H    0.000000
    12  O    4.583343   0.000000
    13  H    5.290085   0.980403   0.000000
    14  H    4.997538   0.980549   1.578262   0.000000
 Stoichiometry    H9NO3Pd(2+)
 Framework group  C1[X(H9NO3Pd)]
 Deg. of freedom    36
 Full point group                 C1      NOp   1
 Largest Abelian subgroup         C1      NOp   1
 Largest concise Abelian subgroup C1      NOp   1
                         Standard orientation:                         
 ---------------------------------------------------------------------
 Center     Atomic      Atomic             Coordinates (Angstroms)
 Number     Number       Type             X           Y           Z
 ---------------------------------------------------------------------
      1         46           0        0.002836   -0.010541    0.004050
      2          8           0        1.531509   -1.394341   -0.003598
      3          1           0        1.588693   -2.001111   -0.773275
      4          1           0        1.653786   -1.935902    0.806260
      5          7           0        1.458304    1.391452   -0.013008
      6          1           0        2.352666    0.987246   -0.332033
      7          1           0        1.209516    2.172029   -0.641015
      8          8           0       -1.344293    1.540622   -0.022174
      9          1           0       -2.045702    1.442669   -0.704806
     10          1           0       -1.810896    1.692765    0.830149
     11          1           0        1.609945    1.783414    0.930322
     12          8           0       -1.606500   -1.345114   -0.004463
     13          1           0       -1.739923   -1.940170   -0.772119
     14          1           0       -1.802405   -1.865569    0.803140
 ---------------------------------------------------------------------
 Rotational constants (GHZ):           3.1801707           2.9422416           1.5770612
 Basis read from rwf:  (5D, 7F)
 Pseudo-potential data read from rwf file.
 There are   176 symmetry adapted cartesian basis functions of A   symmetry.
 There are   157 symmetry adapted basis functions of A   symmetry.
   157 basis functions,   274 primitive gaussians,   176 cartesian basis functions
    28 alpha electrons       28 beta electrons
       nuclear repulsion energy       308.2434035414 Hartrees.
 NAtoms=   14 NActive=   14 NUniq=   14 SFac= 1.00D+00 NAtFMM=   60 NAOKFM=F Big=F
 Integral buffers will be    131072 words long.
 Raffenetti 2 integral format.
 Two-electron integral symmetry is turned on.
 Nuclear repulsion after empirical dispersion term =      308.2332128249 Hartrees.
 One-electron integrals computed using PRISM.
   1 Symmetry operations used in ECPInt.
[...]
 ! D3    D(12,1,2,3)            61.6856         -DE/DX =    0.0                 !
 ! D4    D(12,1,2,4)           -68.6748         -DE/DX =    0.0                 !
 ! D5    D(3,2,8,9)             13.9911         -DE/DX =    0.0                 !
 ! D6    D(3,2,8,10)           139.2032         -DE/DX =    0.0                 !
 ! D7    D(4,2,8,9)           -119.7365         -DE/DX =    0.0                 !
 ! D8    D(4,2,8,10)             5.4755         -DE/DX =    0.0                 !
 ! D9    D(2,1,5,6)             18.7038         -DE/DX =    0.0                 !
 ! D10   D(2,1,5,7)            139.1926         -DE/DX =    0.0                 !
 ! D11   D(2,1,5,11)          -101.0108         -DE/DX =    0.0                 !
 ! D12   D(8,1,5,6)           -160.062          -DE/DX =    0.0                 !
 ! D13   D(8,1,5,7)            -39.5732         -DE/DX =    0.0                 !
 ! D14   D(8,1,5,11)            80.2234         -DE/DX =    0.0                 !
 ! D15   D(6,5,12,13)          -45.6052         -DE/DX =    0.0                 !
 ! D16   D(6,5,12,14)           91.836          -DE/DX =    0.0                 !
 ! D17   D(7,5,12,13)           74.8849         -DE/DX =    0.0                 !
 ! D18   D(7,5,12,14)         -147.6739         -DE/DX =    0.0                 !
 ! D19   D(11,5,12,13)        -166.5838         -DE/DX =    0.0                 !
 ! D20   D(11,5,12,14)         -29.1426         -DE/DX =    0.0                 !
 ! D21   D(5,1,8,9)            131.2013         -DE/DX =    0.0                 !
 ! D22   D(5,1,8,10)          -106.4534         -DE/DX =    0.0                 !
 ! D23   D(12,1,8,9)           -48.1995         -DE/DX =    0.0                 !
 ! D24   D(12,1,8,10)           74.1458         -DE/DX =    0.0                 !
 ! D25   D(2,1,12,13)          -63.4744         -DE/DX =    0.0                 !
 ! D26   D(2,1,12,14)           71.7102         -DE/DX =    0.0                 !
 ! D27   D(8,1,12,13)          115.2093         -DE/DX =    0.0                 !
 ! D28   D(8,1,12,14)         -109.606          -DE/DX =    0.0                 !
 --------------------------------------------------------------------------------
 GradGradGradGradGradGradGradGradGradGradGradGradGradGradGradGradGradGrad


 ----------------------------------------------------------------------

 Electric dipole moment (input orientation):
 (Debye = 10**-18 statcoulomb cm , SI units = C m)
                  (au)            (Debye)         (10**-30 SI)
   Tot        0.642466D+00      0.163299D+01      0.544705D+01
   x         -0.406867D-01     -0.103415D+00     -0.344956D+00
   y          0.623297D+00      0.158426D+01      0.528454D+01
   z         -0.150357D+00     -0.382170D+00     -0.127478D+01

 Dipole polarizability, Alpha (input orientation).
 (esu units = cm**3 , SI units = C**2 m**2 J**-1)
 Alpha(0;0):
               (au)            (10**-24 esu)      (10**-40 SI)
   iso        0.506142D+02      0.750025D+01      0.834516D+01
   aniso      0.180034D+02      0.266783D+01      0.296836D+01
   xx         0.564003D+02      0.835767D+01      0.929916D+01
   yx        -0.239422D+01     -0.354786D+00     -0.394753D+00
   yy         0.565007D+02      0.837253D+01      0.931570D+01
   zx        -0.483419D-01     -0.716353D-02     -0.797050D-02
   zy         0.342901D+00      0.508127D-01      0.565368D-01
   zz         0.389417D+02      0.577056D+01      0.642062D+01

 ----------------------------------------------------------------------

 Dipole orientation:
    46          0.00694372          0.00391176          0.02034634
     8          3.01488869         -0.78466973          2.36855739
     1          3.08513701         -2.47506885          3.12985428
     1          3.39541044          0.44214247          3.70760542
     7          2.61480952          0.46836447         -2.73097988
     1          4.29995172         -0.38069909         -2.23829368
     1          1.99870090         -0.30913568         -4.41062882
     8         -2.68048024          0.76689845         -2.67618137
     1         -4.07154150         -0.46553835         -2.71230230
     1         -3.47521740          2.44027810         -2.52584908
     1          2.97493718          2.35978404         -3.04943485
     8         -2.89975693         -0.45697288          2.65639255
     1         -3.18714498         -2.11828063          3.42448508
     1         -3.12267845          0.80930415          3.99069743

 Electric dipole moment (dipole orientation):
 (Debye = 10**-18 statcoulomb cm , SI units = C m)
                  (au)            (Debye)         (10**-30 SI)
   Tot        0.642466D+00      0.163299D+01      0.544705D+01
   x          0.000000D+00      0.000000D+00      0.000000D+00
   y          0.000000D+00      0.000000D+00      0.000000D+00
   z          0.642466D+00      0.163299D+01      0.544705D+01

 Dipole polarizability, Alpha (dipole orientation).
 (esu units = cm**3 , SI units = C**2 m**2 J**-1)
 Alpha(0;0):
               (au)            (10**-24 esu)      (10**-40 SI)
   iso        0.506142D+02      0.750025D+01      0.834516D+01
   aniso      0.180034D+02      0.266783D+01      0.296836D+01
   xx         0.560969D+02      0.831270D+01      0.924912D+01
   yx        -0.466460D+00     -0.691222D-01     -0.769088D-01
   yy         0.400702D+02      0.593779D+01      0.660669D+01
   zx        -0.257557D+01     -0.381660D+00     -0.424655D+00
   zy        -0.421463D+01     -0.624543D+00     -0.694898D+00
   zz         0.556756D+02      0.825027D+01      0.917967D+01

 ----------------------------------------------------------------------
 1\1\GINC-UDC-AN33-9C0\Freq\UPBEPBE\GenECP\H9N1O3Pd1(2+)\MJS7EEK\16-Aug
 -2024\0\\#N Geom=AllCheck Guess=TCheck SCRF=Check GenChk UPBEPBE/GenEC
 P Freq\\1NH3 3H2O on Pd 2+ in Square Planar configuration\\2,1\Pd,0.00
 28776007,0.0101373497,-0.0047607297\O,1.5315229275,1.3939488486,0.0084
 731155\H,1.5875992348,1.9988940539,0.7796688517\H,1.6550352012,1.93738
 32574,-0.7999438835\N,1.4583821961,-1.3919731625,0.0101344017\H,2.3530
 81743,-0.9880242544,0.3285449524\H,1.2101843969,-2.1728925359,0.637956
 0694\O,-1.344359326,-1.5408376409,0.0275410818\H,-2.0444039963,-1.4412
 817588,0.7113513507\H,-1.8126749894,-1.6947133177,-0.8235376592\H,1.60
 91740657,-1.7834702818,-0.933529212\O,-1.6064803548,1.3447431217,0.002
 8037144\H,-1.7400361911,1.9401018423,0.7702078724\H,-1.8021395083,1.86
 48884781,-0.8050639255\\Version=ES64L-G16RevB.01\State=1-A\HF=-412.907
 6465\S2=0.\S2-1=0.\S2A=0.\RMSD=3.023e-09\RMSF=6.196e-06\ZeroPoint=0.11
 44431\Thermal=0.1249789\Dipole=-0.0406867,0.6232975,-0.1503572\DipoleD
 eriv=1.2465665,0.010138,0.0005572,-0.0680445,1.2501194,-0.008549,0.014
 3516,-0.0102456,0.2305484,-0.4888064,-0.179466,0.0001261,-0.2341102,-0
 .5912802,-0.0014609,-0.0060606,0.0031525,-0.3511901,0.3216191,-0.02963
 33,0.0530006,0.0055704,0.3545501,0.0544427,0.1310247,0.1489136,0.38203
 18,0.3407539,-0.0203301,-0.0561738,-0.0007096,0.3408417,-0.0521059,-0.
 1346156,-0.1514829,0.3819525,-0.2583506,0.0984059,0.0009637,0.1303187,
 -0.2756675,0.001757,0.0008678,0.0054246,-0.2221991,0.2991716,-0.005236
 2,0.0198304,0.0750129,0.1612107,0.0005478,0.0447972,-0.0258667,0.23129
 23,0.1530184,0.0666722,0.0007358,-0.0039457,0.2836276,-0.0347007,0.058
 9452,-0.0836226,0.2559465,-0.558428,-0.269222,0.0138435,-0.1921878,-0.
 4762014,-0.0026472,-0.0128966,-0.0092025,-0.3381869,0.3829837,0.023790
 7,-0.0599432,-0.0284349,0.3014473,-0.0479642,-0.1481335,-0.1233239,0.3
 763434,0.3249811,0.001816,0.04584,0.0001459,0.3586066,0.059425,0.15008
 28,0.1401229,0.3733626,0.1922723,0.033528,-0.0205535,0.0185903,0.22735
 63,0.0283255,-0.101923,0.1022457,0.2771131,-0.6118779,0.208353,0.00094
 37,0.2860751,-0.6215632,0.0010719,0.0013233,0.0057436,-0.3439517,0.319
 0644,0.0331241,-0.0601964,0.0000054,0.3507413,0.0450927,-0.145249,0.13
 02942,0.3734485,0.337032,0.0280596,0.061026,0.011714,0.3362114,-0.0432
 348,0.1474857,-0.1321529,0.3734887\Polar=56.4003239,-2.3942158,56.5006
 594,-0.0483419,0.3429014,38.9416952\Quadrupole=4.935496,7.2869162,-12.
 2224122,-0.3737667,0.1204968,0.7154809\PG=C01 [X(H9N1O3Pd1)]\NImag=0\\
 0.27162346,0.00339676,0.26283837,-0.00087398,0.00109956,0.11950785,-0.
 06358140,-0.03190517,0.00063816,0.09251832,-0.03689664,-0.04885181,-0.
 00134767,0.11228158,0.43398619,0.00094399,-0.00162413,-0.03422736,-0.0
 2925301,0.01446149,0.66340052,0.00067888,-0.00545081,-0.00985986,-0.01
 598248,-0.02711544,-0.00741661,0.01616492,0.00248939,-0.00635567,-0.00
 433942,-0.03097787,-0.20626798,-0.22641104,0.02670893,0.19901130,-0.00
 398617,-0.00266371,0.00292856,-0.01101380,-0.17946657,-0.30648517,0.01
 348800,0.20717183,0.32595989,-0.00070351,-0.00470356,0.00991640,-0.020
 06118,-0.04003401,0.03583147,0.00069246,0.00276226,0.00013978,0.021004
 93,0.00218174,-0.00554907,0.00513048,-0.04765976,-0.17568604,0.2128619
 9,0.00494779,0.01349481,-0.02558146,0.04158434,0.16786932,0.00338050,0
 .00320141,0.00339228,0.04002111,0.16618856,-0.33281510,0.00156962,0.02
 301884,-0.02290018,-0.04376450,-0.19170668,0.35208267,-0.07792072,0.02
 303548,-0.00051325,0.00420607,-0.00141939,-0.00036982,0.00033143,-0.00
 061420,-0.00018891,0.00027555,-0.00019809,0.00046036,0.50662270,0.0242
 9761,-0.07653290,0.00012858,0.00294920,-0.00711334,-0.00010550,0.00044
 010,-0.00033721,0.00014322,0.00046574,-0.00011762,0.00000426,0.1528914
 8,0.51745392,-0.00153329,0.00112150,-0.03996880,-0.00040677,0.00061296
 ,0.00133681,-0.00035752,0.00049972,-0.00043591,0.00035433,-0.00040589,
 -0.00021533,-0.00218309,0.00009152,0.63777409,-0.01291465,-0.00071772,
 -0.00292102,-0.00019115,-0.00058628,0.00021086,0.00039750,-0.00001788,
 0.00020872,0.00049386,-0.00025338,-0.00026678,-0.30757135,-0.13483354,
 -0.09486190,0.31769716,0.01417055,0.00990781,0.00502451,-0.00269279,0.
 00031590,-0.00058826,0.00004038,-0.00068305,0.00004818,-0.00046943,-0.
 00028733,0.00017823,-0.11102643,-0.09687686,-0.03604182,0.13146886,0.1
 0425685,0.00015363,0.00221655,0.00040330,-0.00005579,-0.00044395,-0.00
 153080,0.00052749,-0.00061118,0.00074645,-0.00047105,0.00048516,0.0001
 1380,-0.08853667,-0.04181057,-0.09145823,0.09712160,0.04559586,0.08973
 463,0.00596512,0.01258447,-0.00944885,0.00005291,0.00018592,-0.0000122
 4,-0.00001814,-0.00004420,-0.00006218,-0.00004376,-0.00007617,0.000093
 69,-0.06541122,-0.05990364,0.03972423,-0.00510348,-0.02218882,0.021915
 91,0.06850796,0.00046500,-0.01090233,0.00546077,0.00054271,-0.00016241
 ,-0.00016302,0.00008318,-0.00019449,-0.00001143,0.00003765,-0.00010564
 ,0.00012363,-0.07940327,-0.24632953,0.16410702,-0.00050585,-0.00866805
 ,0.00889547,0.07416007,0.25258017,-0.00395395,-0.00032836,0.00153219,0
 .00011889,-0.00070729,-0.00021619,0.00006534,-0.00000286,0.00034268,0.
 00001959,0.00009384,-0.00015490,0.05199532,0.15159929,-0.18276044,-0.0
 0350012,-0.01146944,0.00944957,-0.05526071,-0.16670100,0.18945755,-0.0
 4893369,-0.03692298,0.00505327,0.00214243,-0.00480653,-0.00085276,-0.0
 0106837,-0.00031174,0.00131013,-0.00060121,-0.00022862,-0.00123323,-0.
 00674953,-0.00155495,-0.00032060,0.00009165,0.00059904,0.00047968,0.00
 000810,-0.00053486,0.00065047,0.45146149,-0.02668845,-0.06728224,-0.00
 041443,-0.00042169,0.00225583,0.00069029,-0.00016594,0.00093298,0.0007
 2609,-0.00024909,0.00065579,-0.00090276,0.00232748,0.00486557,0.000353
 05,0.00048955,-0.00013166,-0.00012786,-0.00192429,-0.00021240,0.000391
 40,0.05408399,0.10977020,0.00412555,-0.00200342,-0.03339045,-0.0008922
 5,-0.00002211,0.01223789,0.00203963,0.00095854,-0.00051415,-0.00212297
 ,-0.00102002,-0.00069906,0.00047963,0.00078412,0.00003323,0.00003193,0
 .00000918,-0.00004580,0.00034364,-0.00009728,-0.00074542,-0.04033228,0
 .09912138,0.62424474,-0.00847649,0.00120871,0.00367098,0.00092711,0.00
 001863,-0.00065306,-0.00009884,-0.00033091,-0.00008929,0.00005219,-0.0
 0023098,0.00020175,-0.00028910,-0.00074504,-0.00029260,-0.00013667,-0.
 00006554,-0.00005314,-0.00033525,0.00006838,0.00028059,-0.25720818,0.0
 2200759,0.22818752,0.25208558,-0.00886702,0.00316279,0.01006883,-0.000
 09018,-0.00139327,-0.00209122,-0.00070902,-0.00023083,0.00023959,0.000
 11322,0.00005441,-0.00003904,0.00023713,0.00013718,0.00022675,0.000060
 02,-0.00007347,0.00001127,0.00006597,0.00019851,-0.00028562,0.02276556
 ,-0.02315711,-0.04810105,-0.02157612,0.02114100,0.00290758,0.00424516,
 0.00209107,-0.00071406,-0.00118005,-0.00030810,-0.00012849,0.00001923,
 0.00047136,-0.00001216,0.00006744,-0.00025531,-0.00028349,0.00005507,-
 0.00034686,0.00008598,0.00011528,0.00015806,-0.00020812,-0.00014889,0.
 00078858,0.18041511,-0.03820539,-0.24356845,-0.21201844,0.04177288,0.2
 6434672,-0.00524965,0.00092203,-0.00665180,0.00051005,-0.00024686,0.00
 137968,0.00013091,-0.00012785,-0.00011508,-0.00023923,-0.00034949,-0.0
 0005317,0.00013912,-0.00004974,0.00010604,-0.00014678,-0.00010454,0.00
 005823,-0.00009716,-0.00018375,-0.00027112,-0.14270662,-0.04681145,-0.
 19094041,0.01323451,0.00657323,0.02967348,0.13513295,-0.00550054,-0.00
 178885,-0.01063480,-0.00029932,-0.00061296,0.00223098,0.00022009,0.000
 05292,-0.00006083,-0.00065453,-0.00021542,-0.00014991,0.00029448,0.000
 08822,-0.00023452,0.00005564,-0.00008695,-0.00008480,-0.00035169,0.000
 39278,0.00025133,-0.03415361,-0.02321963,-0.04936168,-0.00080469,0.000
 25756,-0.00607582,0.04005564,0.02531776,-0.00427190,-0.00282271,0.0035
 6599,0.00106711,0.00133942,-0.00070050,-0.00000849,-0.00016705,-0.0002
 8158,0.00020200,0.00001055,0.00054199,-0.00005527,-0.00061178,-0.00006
 732,-0.00013008,-0.00014485,-0.00011944,0.00000500,0.00016277,-0.00016
 643,-0.14470650,-0.06077220,-0.35792363,-0.01940579,-0.00115633,-0.023
 09279,0.16705470,0.06356721,0.37735135,-0.00184821,0.00545389,0.011576
 70,0.00010491,-0.00011360,0.00028666,0.00000165,0.00006718,-0.00008270
 ,0.00018305,-0.00010799,-0.00005803,-0.05573335,0.01219745,0.05947300,
 0.00699031,-0.01107851,-0.03151347,-0.00135067,0.00470546,0.00875288,-
 0.00005117,-0.00080090,-0.00072118,0.00010790,-0.00020424,0.00016405,-
 0.00085202,0.00032773,0.00044790,0.05362954,0.00255620,-0.00577870,-0.
 00978528,-0.00007391,-0.00014469,0.00062721,-0.00013329,0.00008506,-0.
 00016887,0.00023050,-0.00054209,-0.00027236,0.00723832,-0.09894636,-0.
 13035726,0.00401920,-0.00485117,-0.01353260,-0.00319991,0.01290545,0.0
 2768924,-0.00021662,0.00006189,-0.00020024,0.00004251,0.00000074,0.000
 01065,-0.00007879,0.00030289,0.00007504,-0.01142257,0.09725085,0.00373
 411,-0.00188597,0.00408275,0.00050007,0.00048221,-0.00011677,0.0000624
 9,-0.00015427,-0.00022337,-0.00011627,0.00007174,0.00055784,0.03919998
 ,-0.11055078,-0.33655558,0.00360328,-0.00179098,-0.00778514,0.00123526
 ,-0.01084929,-0.01750605,-0.00055770,-0.00067986,0.00007087,0.00013205
 ,-0.00009225,-0.00028551,-0.00010141,0.00013549,0.00068912,-0.04626008
 ,0.12425193,0.35778744,-0.05996475,0.02454294,-0.00043211,-0.00249709,
 0.00129621,-0.00006247,0.00104458,0.00009198,0.00043809,0.00095434,0.0
 0011615,-0.00037023,0.00414660,0.00284297,0.00018284,0.00055531,0.0006
 0078,0.00028487,-0.00190447,0.00047310,0.00103275,0.00400079,-0.000777
 62,-0.00013544,-0.00050958,0.00150417,0.00028454,-0.00031016,0.0007994
 5,-0.00037604,-0.00090313,0.00075783,-0.00121624,0.11260251,0.03279932
 ,-0.04072225,-0.00144716,-0.00150119,0.00449938,0.00003733,0.00156295,
 -0.00044830,-0.00045198,0.00134131,-0.00042657,0.00051095,0.00488584,0
 .00134161,0.00024614,0.00033169,-0.00241936,-0.00052754,0.00099097,0.0
 0035722,-0.00067855,0.00064691,-0.00452666,-0.00004888,0.00014578,0.00
 066138,-0.00062880,0.00019972,0.00031835,0.00052072,0.00081548,-0.0003
 7165,0.00118510,-0.15474343,0.40441735,-0.00119902,-0.00126818,-0.0362
 6134,0.00002477,0.00004696,0.00004607,0.00049739,-0.00013180,-0.000327
 84,-0.00047405,0.00021371,-0.00029130,0.00008439,0.00048848,0.01395372
 ,0.00048846,-0.00107540,0.00026755,0.00183783,-0.00086929,-0.00014203,
 0.00026638,-0.00030859,0.00105068,0.00010835,-0.00104448,-0.00071247,-
 0.00028192,0.00094017,-0.00034758,-0.00235314,0.00188912,-0.00094863,0
 .02951382,0.01957948,0.66723940,0.00123330,0.00460043,0.00979977,0.000
 98719,-0.00140225,-0.00036205,-0.00164469,0.00021184,0.00023180,-0.000
 64277,0.00007939,0.00023119,-0.00103770,0.00050795,-0.00252024,-0.0001
 6652,0.00058304,0.00003148,-0.00049829,0.00018810,0.00005959,-0.000142
 18,-0.00051390,0.00021789,0.00036595,-0.00018077,-0.00031218,0.0001237
 1,0.00018780,-0.00003626,0.00024169,-0.00023919,0.00007282,-0.02466208
 ,0.05220827,0.03811808,0.02390588,-0.00231600,-0.00647734,-0.00350650,
 -0.00006204,-0.00043870,-0.00006692,-0.00028592,0.00053663,0.00015433,
 -0.00015910,0.00040433,0.00000740,0.00091495,0.00135619,0.00076630,0.0
 0027268,-0.00027027,0.00001873,-0.00007565,0.00002735,0.00006311,0.000
 47135,-0.00009761,0.00044043,0.00011880,-0.00078847,-0.00034499,-0.000
 01023,0.00004096,-0.00019322,-0.00009278,0.00009472,-0.00014908,0.0550
 7152,-0.19975777,-0.22579510,-0.04984780,0.19303531,0.00408671,-0.0027
 7911,0.00299634,-0.00025007,-0.00045344,-0.00033796,-0.00022402,0.0001
 2947,0.00087684,0.00030543,-0.00007926,-0.00015136,-0.00106434,0.00078
 345,-0.00060551,0.00005349,0.00044043,0.00015932,-0.00038845,-0.000018
 21,0.00031968,0.00046629,0.00042416,-0.00040393,-0.00018697,0.00020911
 ,0.00084751,-0.00003155,-0.00029409,-0.00016953,-0.00004764,-0.0000065
 2,-0.00024953,0.03417366,-0.17867587,-0.30740551,-0.04045704,0.2059908
 8,0.32751890,0.00009231,0.00395554,-0.00995440,0.00086429,-0.00116135,
 0.00032934,-0.00062980,0.00009307,-0.00027840,-0.00136473,0.00019509,-
 0.00021229,-0.00100851,0.00049442,0.00263559,0.00000481,0.00016340,0.0
 0005724,0.00022835,-0.00009592,0.00001050,-0.00024353,-0.00055528,-0.0
 0028126,0.00028087,0.00030807,0.00014620,0.00033038,-0.00017643,0.0002
 1362,-0.00052050,0.00051973,-0.00028836,-0.03255288,0.06031640,-0.0666
 3135,0.00193650,-0.00399976,0.00356449,0.03258243,-0.00208792,-0.00566
 783,0.00456252,-0.00008956,-0.00038610,0.00014078,-0.00014299,0.000403
 83,-0.00007839,-0.00026527,0.00045114,-0.00016254,0.00083623,0.0010111
 3,-0.00098548,0.00021702,-0.00013238,-0.00008455,-0.00022302,0.0001133
 7,0.00008490,0.00016307,0.00008506,-0.00045898,0.00014288,0.00002959,0
 .00029823,0.00021208,-0.00084762,0.00019243,0.00025340,-0.00006694,0.0
 0002602,0.06742396,-0.16292272,0.20733491,-0.00638290,0.01233467,-0.02
 567100,-0.06005697,0.15559480,-0.00351377,0.00349140,0.00334762,0.0002
 1565,0.00048947,-0.00028335,-0.00025497,0.00001998,-0.00015760,0.00019
 201,-0.00014162,0.00079397,0.00097516,-0.00099938,-0.00068386,-0.00012
 442,-0.00030091,-0.00009326,0.00022500,0.00010875,-0.00019879,-0.00063
 826,-0.00029528,-0.00034653,0.00011805,0.00028156,-0.00013379,0.000174
 33,-0.00022872,0.00072032,0.00033504,-0.00022006,0.00048257,-0.0633180
 4,0.16037905,-0.33612071,-0.00507486,0.02261463,-0.02339526,0.07068907
 ,-0.18519886,0.35606867\\-0.00000311,-0.00000319,0.00002477,0.00000242
 ,-0.00000838,0.00000102,-0.00000338,0.00000333,0.00000103,0.00000206,-
 0.00000008,-0.00000409,-0.00000131,-0.00000336,-0.00000435,-0.00000492
 ,0.00000388,-0.00000074,-0.00000429,0.00000284,-0.00000323,0.00000847,
 0.00000495,-0.00000542,0.00000079,-0.00000514,-0.00000030,-0.00000357,
 0.00000058,0.00000261,-0.00000497,0.00000211,0.00000052,0.00001905,-0.
 00000138,-0.00001176,-0.00000254,0.00000087,-0.00000175,-0.00000469,0.
 00000296,0.00000169\\\@


 TIME IS IN FACT THE HERO OF THE PLOT. THE TIME
 WITH WHICH WE HAVE TO DEAL IS OF THE ORDER OF TWO
 BILLION YEARS...GIVEN SO MUCH TIME, THE "IMPOSSIBLE"
 BECOMES POSSIBLE, THE POSSIBLE PROBABLE, THE PROBABLE
 VIRTUALLY CERTAIN.  ONE HAS ONLY TO WAIT, TIME
 ITSELF PERFORMS THE MIRACLES.
 "ORIGIN OF LIFE" LECTURES, GEORGE WALD, 1954
 Job cpu time:       0 days  3 hours 54 minutes  4.9 seconds.
 Elapsed time:       0 days  0 hours  7 minutes 56.5 seconds.
 File lengths (MBytes):  RWF=     80 Int=      0 D2E=      0 Chk=      4 Scr=      1
 Normal termination of Gaussian 16 at Fri Aug 16 18:09:54 2024.
